

     ************************************************************************
     *************** Dalton - An Electronic Structure Program ***************
     ************************************************************************

    This is output from DALTON release Dalton2024.0-dev (2024)
         ( Web site: http://daltonprogram.org )

   ----------------------------------------------------------------------------

    NOTE:
     
    Dalton is an experimental code for the evaluation of molecular
    properties using (MC)SCF, DFT, CI, and CC wave functions.
    The authors accept no responsibility for the performance of
    the code or for the correctness of the results.
     
    The code (in whole or part) is provided under a licence and
    is not to be reproduced for further distribution without
    the written permission of the authors or their representatives.
     
    See the home page "http://daltonprogram.org" for further information.
     
    If results obtained with this code are published,
    the appropriate citations would be both of:
     
       K. Aidas, C. Angeli, K. L. Bak, V. Bakken,
       R. Bast, L. Boman, O. Christiansen, R. Cimiraglia,
       S. Coriani, P. Dahle, E. K. Dalskov, U. Ekstroem,
       T. Enevoldsen, J. J. Eriksen, P. Ettenhuber, B. Fernandez,
       L. Ferrighi, H. Fliegl, L. Frediani, K. Hald, A. Halkier,
       C. Haettig, H. Heiberg, T. Helgaker, A. C. Hennum,
       H. Hettema, E. Hjertenaes, S. Hoest, I.-M. Hoeyvik,
       M. F. Iozzi, B. Jansik, H. J. Aa. Jensen, D. Jonsson,
       P. Joergensen, J. Kauczor, S. Kirpekar,
       T. Kjaergaard, W. Klopper, S. Knecht, R. Kobayashi, H. Koch,
       J. Kongsted, A. Krapp, K. Kristensen, A. Ligabue,
       O. B. Lutnaes, J. I. Melo, K. V. Mikkelsen, R. H. Myhre,
       C. Neiss, C. B. Nielsen, P. Norman, J. Olsen,
       J. M. H. Olsen, A. Osted, M. J. Packer, F. Pawlowski,
       T. B. Pedersen, P. F. Provasi, S. Reine, Z. Rinkevicius,
       T. A. Ruden, K. Ruud, V. Rybkin, P. Salek, C. C. M. Samson,
       A. Sanchez de Meras, T. Saue, S. P. A. Sauer,
       B. Schimmelpfennig, K. Sneskov, A. H. Steindal,
       K. O. Sylvester-Hvid, P. R. Taylor, A. M. Teale,
       E. I. Tellgren, D. P. Tew, A. J. Thorvaldsen, L. Thoegersen,
       O. Vahtras, M. A. Watson, D. J. D. Wilson, M. Ziolkowski
       and H. Agren,
       "The Dalton quantum chemistry program system",
       WIREs Comput. Mol. Sci. 2014, 4:269-284 (doi: 10.1002/wcms.1172)
     
    and
     
       Dalton, a molecular electronic structure program,
       Release Dalton2024.0-dev (2024), see http://daltonprogram.org
   ----------------------------------------------------------------------------

    Authors in alphabetical order (Major contribution(s) in parenthesis):

  Kestutis Aidas,              Vilnius University,        Lithuania   (QM/MM)
  Celestino Angeli,            University of Ferrara,     Italy       (NEVPT2)
  Juan J. Aucar,               Northeast National UniversiArgentina   (LRESC, Relativistic Effects on EFG)
  Keld L. Bak,                 UNI-C,                     Denmark     (AOSOPPA, non-adiabatic coupling, magnetic properties)
  Vebjoern Bakken,             University of Oslo,        Norway      (DALTON; geometry optimizer, symmetry detection)
  Radovan Bast,                UiT The Arctic U. of NorwayNorway      (DALTON installation and execution frameworks)
  Pablo Baudin,                University of Valencia,    Spain       (Cholesky excitation energies)
  Linus Boman,                 NTNU,                      Norway      (Cholesky decomposition and subsystems)
  Bruno N. Cabral Tenorio,     Technical Univ. of Denmark,Denmark     (Lanczos-based CC methods)
  Ove Christiansen,            Aarhus University,         Denmark     (CC module)
  Renzo Cimiraglia,            University of Ferrara,     Italy       (NEVPT2)
  Sonia Coriani,               Technical Univ. of Denmark,Denmark     (CC and RESPONS modules)
  Janusz Cukras,               University of Warsaw,      Poland      (MChD in RESPONS)
  Paal Dahle,                  University of Oslo,        Norway      (Parallelization)
  Erik K. Dalskov,             UNI-C,                     Denmark     (SOPPA)
  Thomas Enevoldsen,           Univ. of Southern Denmark, Denmark     (SOPPA)
  Janus J. Eriksen,            Aarhus University,         Denmark     (Polarizable embedding, TDA)
  Rasmus Faber,                Technical Univ. of Denmark,Denmark     (Vib.avg. NMR w. SOPPA, parallel AO-SOPPA, CVS-CC and EOMCC)
  Tobias Fahleson,             KTH Stockholm,             Sweden      (Damped cubic response)
  Berta Fernandez,             U. of Santiago de CompostelSpain       (Doublet spin, ESR in RESPONS)
  Lara Ferrighi,               Aarhus University,         Denmark     (PCM Cubic response)
  Heike Fliegl,                University of Oslo,        Norway      (CCSD(R12))
  Luca Frediani,               UiT The Arctic U. of NorwayNorway      (PCM)
  Emmanuel Fromager,           Univ. Strasbourg,          France      (MC-srDFT)
  Bin Gao,                     UiT The Arctic U. of NorwayNorway      (Gen1Int library)
  Andre S. P. Gomes,           CNRS/Universite de Lille,  France      (Frozen density embedding)
  Christof Haettig,            Ruhr-University Bochum,    Germany     (CC module)
  Kasper Hald,                 Aarhus University,         Denmark     (CC module)
  Asger Halkier,               Aarhus University,         Denmark     (CC module)
  Frederik Beyer Hansen,       University of Copenhagen,  Denmark     (Parallel AO-SOPPA)
  Erik D. Hedegaard,           Univ. of Southern Denmark, Denmark     (Polarizable embedding, QM/MM, and MC-srDFT)
  Hanne Heiberg,               University of Oslo,        Norway      (Geometry analysis, selected one-electron integrals)
  Trygve Helgaker,             University of Oslo,        Norway      (DALTON; ABACUS, ERI, DFT modules, London, and much more)
  Alf Christian Hennum,        University of Oslo,        Norway      (Parity violation)
  Hinne Hettema,               University of Auckland,    New Zealand (Quadratic response in RESPONS; SIRIUS supersymmetry)
  Andreas E. Hillers-Bendtsen, University of Copenhagen,  Denmark     (MP3)
  Eirik Hjertenaes,            NTNU,                      Norway      (Cholesky decomposition)
  Nicolai Machholdt Hoeyer,    Aarhus University,         Denmark     (MP3)
  Pi A. B. Haase,              University of Copenhagen,  Denmark     (Triplet AO-SOPPA)
  Maria Francesca Iozzi,       University of Oslo,        Norway      (RPA)
  Christoph Jacob,             TU Braunschweig            Germany     (Frozen density embedding)
  Brano Jansik,                Technical Univ. of Ostrava Czech Rep.  (DFT cubic response)
  Hans Joergen Aa. Jensen,     Univ. of Southern Denmark, Denmark     (DALTON; SIRIUS, RESPONS, ABACUS, MC-srDFT, and much more)
  Dan Jonsson,                 UiT The Arctic U. of NorwayNorway      (Cubic response in RESPONS module)
  Poul Joergensen,             Aarhus University,         Denmark     (RESPONS, ABACUS, and CC modules)
  Maciej Kaminski,             University of Warsaw,      Poland      (CPPh in RESPONS)
  Joanna Kauczor,              Linkoeping University,     Sweden      (Complex polarization propagator (CPP) module)
  Sheela Kirpekar,             Univ. of Southern Denmark, Denmark     (Mass-velocity & Darwin integrals)
  Frederik Oersted Kjeldal,    Technical Univ. of Denmark,Denmark     (MP3)
  Erik Kjellgren,              Univ. of Southern Denmark, Denmark     (MC-srDFT)
  Wim Klopper,                 KIT Karlsruhe,             Germany     (R12 code in CC, SIRIUS, and ABACUS modules)
  Stefan Knecht,               ETH Zurich,                Switzerland (Parallel CI and MCSCF, MC-srDFT)
  Rika Kobayashi,              Australian National Univ., Australia   (DIIS in CC, London in MCSCF)
  Henrik Koch,                 NTNU,                      Norway      (CC module, Cholesky decomposition)
  Jacob Kongsted,              Univ. of Southern Denmark, Denmark     (Polarizable embedding, polarizable density embedding, QM/MM)
  Andrea Ligabue,              University of Modena,      Italy       (CTOCD, AOSOPPA)
  Nanna H. List,               Univ. of Southern Denmark, Denmark     (Polarizable embedding)
  Ola B. Lutnaes,              University of Oslo,        Norway      (DFT Hessian)
  Juan I. Melo,                University of Buenos Aires,Argentina   (LRESC, Relativistic Effects on NMR Shieldings)
  Kurt V. Mikkelsen,           University of Copenhagen,  Denmark     (MC-SCRF, QM/MM, and MP3)
  Rolf H. Myhre,               NTNU,                      Norway      (Subsystems and CC3)
  Christian Neiss,             Univ. Erlangen-Nuernberg,  Germany     (CCSD(R12))
  Christian B. Nielsen,        University of Copenhagen,  Denmark     (QM/MM)
  Patrick Norman,              KTH Stockholm,             Sweden      (Cubic response and complex frequency response in RESPONS)
  Jeppe Olsen,                 Aarhus University,         Denmark     (SIRIUS CI/density modules)
  Jogvan Magnus H. Olsen,      Aarhus University,         Denmark     (Polarizable embedding and polarizable density embedding)
  Anders Osted,                Copenhagen University,     Denmark     (QM/MM)
  Martin J. Packer,            University of Sheffield,   UK          (SOPPA)
  Filip Pawlowski,             Kazimierz Wielki UniversityPoland      (CC3)
  Morten N. Pedersen,          Univ. of Southern Denmark, Denmark     (Polarizable embedding)
  Thomas B. Pedersen,          University of Oslo,        Norway      (Cholesky decomposition)
  Patricio F. Provasi,         University of Northeastern,Argentina   (Analysis of coupling constants in localized orbitals)
  Peter Reinholdt,             Univ. of Southern Denmark, Denmark     (Polarizable embedding and polarizable density embedding)
  Zilvinas Rinkevicius,        KTH Stockholm,             Sweden      (open-shell DFT, ESR)
  Elias Rudberg,               KTH Stockholm,             Sweden      (DFT grid and basis info)
  Torgeir A. Ruden,            University of Oslo,        Norway      (Numerical derivatives in ABACUS)
  Kenneth Ruud,                UiT The Arctic U. of NorwayNorway      (DALTON; ABACUS magnetic properties and much more)
  Pawel Salek,                 KTH Stockholm,             Sweden      (DALTON; DFT code)
  Claire C. M. Samson,         University of Karlsruhe    Germany     (Boys localization, r12 integrals in ERI)
  Alfredo Sanchez de Meras,    University of Valencia,    Spain       (CC module, Cholesky decomposition)
  Trond Saue,                  Paul Sabatier University,  France      (direct Fock matrix construction)
  Stephan P. A. Sauer,         University of Copenhagen,  Denmark     (SOPPA(CCSD), SOPPA prop., AOSOPPA, vibrational g-factors)
  Bernd Schimmelpfennig,       Forschungszentrum KarlsruheGermany     (AMFI module)
  Anna K. Schnack-Petersen,    University of Copenhagen,  Denmark     (RPA(D) and HRPA(D) properties in AOSOPPA)
  Kristian Sneskov,            Aarhus University,         Denmark     (Polarizable embedding, QM/MM)
  Arnfinn H. Steindal,         UiT The Arctic U. of NorwayNorway      (parallel QM/MM, polarizable embedding)
  Casper Steinmann,            Aalborg University,        Denmark     (QFIT, polarizable embedding)
  K. O. Sylvester-Hvid,        University of Copenhagen,  Denmark     (MC-SCRF)
  Peter R. Taylor,             VLSCI/Univ. of Melbourne,  Australia   (Symmetry handling ABACUS, integral transformation)
  Andrew M. Teale,             University of Nottingham,  England     (DFT-AC, DFT-D)
  David P. Tew,                University of Bristol,     England     (CCSD(R12))
  Julien Toulouse,             Sorbonne Univ.,            France      (MC-srDFT)
  Olav Vahtras,                KTH Stockholm,             Sweden      (Triplet response, spin-orbit, ESR, TDDFT, open-shell DFT)
  Lucas Visscher,              Vrije Universiteit AmsterdaNetherlands (Frozen density embedding)
  David J. Wilson,             La Trobe University,       Australia   (DFT Hessian and DFT magnetizabilities)
  Luna Zamok,                  University of Copenhagen,  Denmark     (Block Lanczos RPA solver in SOPPA module)
  Hans Agren,                  KTH Stockholm,             Sweden      (SIRIUS module, RESPONS, MC-SCRF solvation)
 --------------------------------------------------------------------------------

     Date and time (Linux)  : Fri Jul  3 12:25:18 2026
     Host name              : n-62-28-31                              

 * Work memory size             :   512000000 =  3.815 gigabytes.

 * Directories for basis set searches:
   1) /work3/jochar/DaltonTests
   2) /zhome/d7/7/119775/My_Codes/Dalton_Release/dalton/build_omp_nov24/basis


Compilation information
-----------------------

 Who compiled             | soco
 Host                     | hpclogin1
 System                   | Linux-6.1.112-1.el9.elrepo.x86_64
 CMake generator          | Unix Makefiles
 Processor                | x86_64
 64-bit integers          | OFF
 MPI                      | OFF
 Fortran compiler         | /appl/intel/2023.2.0.49397/compiler/2023.2.0/linux
                          | /bin/intel64/ifort
 Fortran compiler version | ifort (IFORT) 2021.10.0 20230609
 C compiler               | /appl/intel/2023.2.0.49397/compiler/2023.2.0/linux
                          | /bin/intel64/icc
 C compiler version       | icc (ICC) 2021.10.0 20230609
 C++ compiler             | /appl/intel/2023.2.0.49397/compiler/2023.2.0/linux
                          | /bin/intel64/icpc
 C++ compiler version     | icpc (ICC) 2021.10.0 20230609
 Static linking           | OFF
 Last Git revision        | a531ac4fbf115ebda1c90140ce3fd6aa236a2033
 Git branch               | master
 Configuration time       | 2024-11-14 11:23:30.470039

 * Sequential calculation.


   Content of the .dal input file
 ----------------------------------

**DALTON INPUT
.RUN WAVE FUNCTIONS   !tipo di calcolo
.RUN RESPONSE
**INTEGRALS
.DIPLEN               !integrali dell'operatore dipolo elettrico
**WAVE FUNCTION
.HF
.CI
!*PRINT
!.PRINTL
!   0 11
*SCF INP              !parte da Hartree-Fock
.DOUBLY OCCUPIED
2
.THRESH               !soglia di convergenza
 1.0D-10
*CONFIGURATION INPUT
.SPIN MULTIPLICITY
1
.SYMMETRY
1
.INACTIVE ORBITALS !the inner electrons are kept frozen
0
.CAS SPACE
6
.ELECTRONS
4
**RESPONS
*LINEAR
.THCLR
1.0d-9
.DIPLEN
.SINGLE RESIDUE
.ROOTS
50
**END OF INPUT


   Content of the .mol file
 ----------------------------

BASIS
STO-3G
test VQE
dalton test
Atomtypes=2 Angstrom Nosymmetry
Charge=3.0 Atoms=1
Li    0.0000000000000000  0.0000000000000000  0.0
Charge=1.0 Atoms=1
H     1.5950000000000000  0.0000000000000000  0.0


       *******************************************************************
       *********** Output from DALTON general input processing ***********
       *******************************************************************

 --------------------------------------------------------------------------------
   Overall default print level:    0
   Print level for DALTON.STAT:    1

    HERMIT 1- and 2-electron integral sections will be executed
    "Old" integral transformation used (limited to max 255 basis functions)
    Wave function sections will be executed (SIRIUS module)
    Dynamic molecular response properties section will be executed (RESPONSE module)
 --------------------------------------------------------------------------------


   ****************************************************************************
   *************** Output of molecule and basis set information ***************
   ****************************************************************************


    The two title cards from your ".mol" input:
    --------------------------------------------------------------------------------
 1: test VQE
 2: dalton test
    --------------------------------------------------------------------------------

  Coordinates are entered in Angstrom and converted to atomic units.
          - Conversion factor : 1 bohr = 0.52917721 A

  Atomic type no.    1
  --------------------
  Nuclear charge:   3.00000
  Number of symmetry independent centers:    1
  Number of basis sets to read;    2
  Basis set file used for this atomic type with Z =   3 :
     "/zhome/d7/7/119775/My_Codes/Dalton_Release/dalton/build_omp_nov24/basis/STO-3G"

  Atomic type no.    2
  --------------------
  Nuclear charge:   1.00000
  Number of symmetry independent centers:    1
  Number of basis sets to read;    2
  Basis set file used for this atomic type with Z =   1 :
     "/zhome/d7/7/119775/My_Codes/Dalton_Release/dalton/build_omp_nov24/basis/STO-3G"


                         SYMGRP: Point group information
                         -------------------------------

@    Point group: C1 


                                 Isotopic Masses
                                 ---------------

                           Li          7.016005
                           H           1.007825

                       Total mass:     8.023830 amu
                       Natural abundance:  92.486 %

 Center-of-mass coordinates (a.u.):    0.378585    0.000000    0.000000
 Center-of-mass coordinates (Angs):    0.200338    0.000000    0.000000


  Atoms and basis sets
  --------------------

  Number of atom types :    2
  Total number of atoms:    2

  Basis set used is "STO-3G" from the basis set library.

  label    atoms   charge   prim   cont     basis
  ----------------------------------------------------------------------
  Li          1    3.0000    15     5      [6s3p|2s1p]                                        
  H           1    1.0000     3     1      [3s|1s]                                            
  ----------------------------------------------------------------------
  total:      2    4.0000    18     6
  ----------------------------------------------------------------------

  Threshold for neglecting AO integrals:  1.00D-12


  Cartesian Coordinates (a.u.)
  ----------------------------

  Total number of coordinates:    6
  Li      :     1  x   0.0000000000    2  y   0.0000000000    3  z   0.0000000000
  H       :     4  x   3.0141131694    5  y   0.0000000000    6  z   0.0000000000


   Interatomic separations (in Angstrom):
   --------------------------------------

            Li          H     
            ------      ------
 Li    :    0.000000
 H     :    1.595000    0.000000


  Max    interatomic separation is    1.5950 Angstrom (    3.0141 Bohr)
  between atoms    2 and    1, "H     " and "Li    ".

  Min HX interatomic separation is    1.5950 Angstrom (    3.0141 Bohr)


  Bond distances (Angstrom):
  --------------------------

                  atom 1     atom 2       distance
                  ------     ------       --------
  bond distance:  H          Li           1.595000




 Principal moments of inertia (u*A**2) and principal axes
 --------------------------------------------------------

   IA       0.000000          1.000000    0.000000    0.000000
   IB       2.241892          0.000000    1.000000    0.000000
   IC       2.241892          0.000000    0.000000    1.000000


 Rotational constants
 --------------------

@    The molecule is linear.

               B =       225425.23 MHz     (    7.519376 cm-1)


@  Nuclear repulsion energy :    0.995317637868 Hartree


                     .---------------------------------------.
                     | Starting in Integral Section (HERMIT) |
                     `---------------------------------------'



 ***************************************************************************************
 ****************** Output from **INTEGRALS input processing (HERMIT) ******************
 ***************************************************************************************



    *************************************************************************
    ****************** Output from HERMIT input processing ******************
    *************************************************************************


 Default print level:        1

 Calculation of one- and two-electron Hamiltonian integrals.

 The following one-electron property integrals are calculated as requested:
          - overlap integrals
          - dipole length integrals

 Center of mass  (bohr):      0.378584616687      0.000000000000      0.000000000000
 Operator center (bohr):      0.000000000000      0.000000000000      0.000000000000
 Gauge origin    (bohr):      0.000000000000      0.000000000000      0.000000000000
 Dipole origin   (bohr):      0.000000000000      0.000000000000      0.000000000000

Calculation of 2-electron integrals are postponed until they are needed.


     ************************************************************************
     ************************** Output from HERINT **************************
     ************************************************************************



                      Nuclear contribution to dipole moments
                      --------------------------------------

                 au               Debye          C m (/(10**-30)

      x      3.01411317         7.66111102        25.55471565
      y      0.00000000         0.00000000         0.00000000
      z      0.00000000         0.00000000         0.00000000


  Total CPU  time used in HERMIT:   0.00 seconds
  Total wall time used in HERMIT:   0.06 seconds


                        .----------------------------------.
                        | End of Integral Section (HERMIT) |
                        `----------------------------------'



                   .--------------------------------------------.
                   | Starting in Wave Function Section (SIRIUS) |
                   `--------------------------------------------'


     WARNING  Reference state is required for CI response and CI-NO
     WARNING  ".STATE" was not specified for "*CI INPUT",
     WARNING  the reference state is set to be state no.  1

 *** Output from Huckel module :

     Using EWMO model:          T
     Using EHT  model:          F
     Number of Huckel orbitals each symmetry:    6

 EWMO - Energy Weighted Maximum Overlap - is a Huckel type method,
        which normally is better than Extended Huckel Theory.
 Reference: Linderberg and Ohrn, Propagators in Quantum Chemistry (Wiley, 1973)

 Huckel EWMO eigenvalues for symmetry :  1
           -2.483509      -0.580536      -0.169654      -0.130000      -0.130000
           -0.070301

 **********************************************************************
 *SIRIUS* a direct, restricted step, second order MCSCF program       *
 **********************************************************************

 
     Date and time (Linux)  : Fri Jul  3 12:25:19 2026
     Host name              : n-62-28-31                              

 Title lines from ".mol" input file:
     test VQE
     dalton test

 Print level on unit LUPRI =   2 is   0
 Print level on unit LUW4  =   2 is   5

@    Configuration interaction calculation.

@    CI response calculation.

@    CI type: user specified active spaces.
@              Type: complete active space calculation (CAS).

@    This is a combination run starting with
@              a restricted, closed shell Hartree-Fock calculation


 Initial molecular orbitals are obtained according to
 ".MOSTART EWMO  " input option

     Wave function specification
     ============================
@    Wave function type        --- CI ---
@    Number of closed shell electrons           0
@    Number of electrons in active shells       4
@    Total charge of the molecule               0

@    Spin multiplicity and 2 M_S                1         0
@    Total number of symmetries                 1 (point group: C1 )
@    Reference state symmetry                   1 (irrep name : A  )

     Orbital specifications
     ======================
@    Abelian symmetry species          All |    1
@                                          |  A  
                                       --- |  ---
@    Inactive orbitals                   0 |    0
@    Active orbitals                     6 |    6
@    Secondary orbitals                  0 |    0
@    Total number of orbitals            6 |    6
@    Number of basis functions           6 |    6

      -- Initial occupation of symmetries is determined from user input.                      
      -- Initial occupation of symmetries is :
@    Occupied SCF orbitals               2 |    2

     Optimization information
     ========================
@    Number of configurations               105
@    Number of orbital rotations              0
     ------------------------------------------
@    Total number of variables              105

     Maximum number of CI iterations         25
     Threshold for CI convergence      1.00D-05
     Number of CI roots to converge           1

@    Reference state in CI response calculation :       1


 ***********************************************
 ***** DIIS acceleration of SCF iterations *****
 ***********************************************

 C1-DIIS algorithm; max error vectors =    7

 Iter      Total energy        Error norm    Delta(E)  DIIS dim.
 -----------------------------------------------------------------------------

Calculating AOSUPINT

---> (Re)generating AOTWOINT


     ************************************************************************
     ************************** Output from HERINT **************************
     ************************************************************************


 Threshold for neglecting two-electron integrals:  1.00D-12
 HERMIT - Number of two-electron integrals written:          83 ( 35.9% )
 HERMIT - Megabytes written:                              0.137

     (Precalculated AO two-electron integrals are transformed to P-supermatrix elements.
      Threshold for discarding integrals :  1.00D-12 )

  CPU  time used in FORMSUP    is   0.00 seconds
  WALL time used in FORMSUP    is   0.14 seconds
@  1    -7.80826899839        5.56473D-01   -7.81D+00    1
      Virial theorem: -V/T =      1.948045
@    MULPOP   Li      0.47; H      -0.47; 
   1  Level shift: doubly occupied orbital energies shifted by -2.00D-01
 -----------------------------------------------------------------------------
@  2    -7.85831505789        1.50219D-01   -5.00D-02    2
      Virial theorem: -V/T =      1.979701
@    MULPOP   Li      0.11; H      -0.11; 
   2  Level shift: doubly occupied orbital energies shifted by -1.00D-01
 -----------------------------------------------------------------------------
@  3    -7.86197908306        1.64725D-02   -3.66D-03    3
      Virial theorem: -V/T =      1.987380
@    MULPOP   Li     -0.00; H       0.00; 
   3  Level shift: doubly occupied orbital energies shifted by -2.50D-02
 -----------------------------------------------------------------------------
@  4    -7.86202381387        4.58554D-04   -4.47D-05    4
      Virial theorem: -V/T =      1.988160
@    MULPOP   Li     -0.02; H       0.02; 
 -----------------------------------------------------------------------------
@  5    -7.86202385713        8.56694D-05   -4.33D-08    5
      Virial theorem: -V/T =      1.988170
@    MULPOP   Li     -0.02; H       0.02; 
 -----------------------------------------------------------------------------
@  6    -7.86202386168        2.84515D-05   -4.55D-09    6
      Virial theorem: -V/T =      1.988168
@    MULPOP   Li     -0.02; H       0.02; 
 -----------------------------------------------------------------------------
@  7    -7.86202386222        1.61999D-08   -5.40D-10    7
      Virial theorem: -V/T =      1.988167
@    MULPOP   Li     -0.02; H       0.02; 
 -----------------------------------------------------------------------------
@  8    -7.86202386222        1.07515D-08    0.00D+00    7
      Virial theorem: -V/T =      1.988167
@    MULPOP   Li     -0.02; H       0.02; 
 -----------------------------------------------------------------------------
@  9    -7.86202386222        3.18923D-14    0.00D+00    7

@ *** DIIS converged in   9 iterations !
@     Converged SCF energy, gradient:     -7.862023862217    3.19D-14
    - total time used in SIRFCK :              0.00 seconds

 --- Writing SIRIFC interface file

--------------------------------------------------------------------------------


     .--------------------------------------------------.
     | HF-SCF KT IPs [a.u. & eV] from Koopmans' theorem |
     `--------------------------------------------------'


     HF-SCF KT symmetry 1 ( A  ) in point group C1  -- 2 principal poles with pole strength 1

   ============  ============
       2.348646      0.285696
      63.909922      7.774190
   ============  ============

@ Summary of HF-SCF KT ionization potentials [eV]:

@ Symmetry 1 (A  ) :    63.910       7.774

  === End of HF-SCF KT output ===
--------------------------------------------------------------------------------


 CPU and wall time for SCF :       0.020       0.537


 ----- Output from SIRIUS CI module (CICTL) -----




 2-el. integral transformation level 0: Total CPU and WALL times (sec)       0.003       0.138

 (CIST1) 8 lowest diagonal elements:

 Element no. Config.no.    Active energy      Total energy

         1 :          1     -8.8573415001     -7.8620238622
         2 :         16     -8.7041234054     -7.7088057675
         3 :         17     -8.6546748188     -7.6593571809
         4 :         19     -8.6546748188     -7.6593571809
         5 :         22     -8.3527134354     -7.3573957975
         6 :         21     -8.2259793880     -7.2306617502
         7 :         18     -8.2259663394     -7.2306487015
         8 :         20     -8.2259663394     -7.2306487015

Lowest 1 elements are used as separate start CI vectors.


 Convergence threshold for CI optimization :     0.00001000


 CI root     eigenvalue        residual norm

    1       -7.8620238622        0.1413423906

 CI root     eigenvalue        residual norm

    1       -7.8818162882        0.0136852680

 CI root     eigenvalue        residual norm

    1       -7.8822794110        0.0090726717

 CI root     eigenvalue        residual norm

    1       -7.8823973325        0.0023426557

 CI root     eigenvalue        residual norm

    1       -7.8824018766        0.0002903016

 CI root     eigenvalue        residual norm

    1       -7.8824019334        0.0000353057

 CI root     eigenvalue        residual norm

    1       -7.8824019339        0.0000032547 converged

 The requested root number is now converged.


 *** CI converged in  7 iterations.



@ Final CI energies and residuals in symmetry 1 (irrep A  )
@    1       -7.882401933917294       3.25D-06

 Writing SIRIFC interface file for CI root no. 1

 CPU and wall time for CI :       0.008       0.287


                       .-----------------------------------.
                       | --- Final results from SIRIUS --- |
                       `-----------------------------------'


@    Spin multiplicity:           1
@    Spatial symmetry:            1 ( irrep  A   in C1  )
@    Total charge of molecule:    0

@    This was a CI calculation.
@    State number:                1

@    Final CI energy:              -7.882401933917
@    Nuclear repulsion:             0.995317637868
@    Electronic energy:            -8.877719571786

@    Final gradient norm:           0.000003254708

 
     Date and time (Linux)  : Fri Jul  3 12:25:19 2026
     Host name              : n-62-28-31                              

 Occupancies of natural orbitals
 -------------------------------

 Symmetry 1  ( A  ) -- Total occupation in this symmetry is   4.000000000

   1.999911092   1.954620414   0.000059453   0.001524636   0.001524636
   0.042359768

  Effective numbers of unpaired electrons this symmetry Eqs. 1) and 2):  0.18  0.01

  Total effective number of unpaired electrons :
  Eq. 1) sum(i) [(2 - n_i) n_i]    =  0.1780
  Eq. 2) sum(i) [(2 - n_i) n_i]**2 =  0.0148
 (Reference: M. Head-Gordon, Chemical Physics Letters 372 (2003) 508-511)

  --- NOTE THAT THE OCCUPATION NUMBERS ARE FOR ANALYSIS PURPOSE ONLY
  --- The orbital coefficients have NOT been transformed
  --- to ordered natural orbitals.

File label for MO orbitals:   3Jul26    CIORB  

 (Only coefficients > 0.0100 are printed.)

 Molecular orbitals for symmetry species 1  (A  )
 ------------------------------------------------

    Orbital         1        2        3        4        5        6
   1 Li  :1s    -0.9912  -0.1674   0.2100   0.0000   0.0000   0.0929
   2 Li  :1s    -0.0327   0.4548  -0.7996  -0.0000  -0.0000  -0.7047
   3 Li  :2px    0.0063   0.3462   0.6121   0.0000   0.0000  -0.9810
   4 Li  :2py   -0.0000   0.0000  -0.0000   0.2117   0.9773  -0.0000
   5 Li  :2pz   -0.0000  -0.0000   0.0000  -0.9773   0.2117  -0.0000
   6 H   :1s    -0.0045   0.5488   0.1398   0.0000   0.0000   1.1873

 Printout of CI-coefficients abs greater than 0.05000 for root  1
 *** NOTE: this root is the CI reference state ***

 Printout of coefficients in interval  3.1623E-01 to  1.0000E+00
 ===============================================================

  Coefficient of CSF no.         1 is      0.98708897    9.87088967E-01
  Orbital          1   2
  Spin coupling    2   2

 Printout of coefficients in interval  1.0000E-01 to  3.1623E-01
 ===============================================================

  Coefficient of CSF no.        11 is     -0.11358919   -1.13589188E-01
  Orbital          1   6
  Spin coupling    2   2

 Printout of coefficients in interval  5.0000E-02 to  1.0000E-01
 ===============================================================

  Coefficient of CSF no.        16 is     -0.05442725   -5.44272493E-02
  Orbital          1   2   3
  Spin coupling    2   1  -1

  Coefficient of CSF no.        23 is     -0.08385601   -8.38560109E-02
  Orbital          1   3   6
  Spin coupling    2   1  -1

 Norm of printed CI vector ..      0.99724129

 Magnitude of CI coefficients
 ============================
 ( Ranges are relative to norm of vector :  1.00E+00 )

  10- 1 to 10- 0         2    0.98724713E+00      0.9872471328
  10- 2 to 10- 1         5    0.12657021E-01      0.9999041537
  10- 3 to 10- 2        11    0.93730494E-04      0.9999978842
  10- 4 to 10- 3        18    0.20954656E-05      0.9999999797
  10- 5 to 10- 4         5    0.20307511E-07      1.0000000000
  Number of coefficients less than 10^-11 times norm is           64

  Total CPU  time used in SIRIUS :   0.04 seconds
  Total wall time used in SIRIUS :   0.98 seconds

 
     Date and time (Linux)  : Fri Jul  3 12:25:19 2026
     Host name              : n-62-28-31                              


                     .---------------------------------------.
                     | End of Wave Function Section (SIRIUS) |
                     `---------------------------------------'



                 .------------------------------------------------.
                 | Starting in Dynamic Property Section (RESPONS) |
                 `------------------------------------------------'


 ----------------------------------------------------------------------------------------
  RESPONSE  -  an MCSCF, MC-srDFT, DFT, SOPPA and SOPPA-srDFT response property program
 ----------------------------------------------------------------------------------------

 This is a configuration interaction response calculation.
   Note: this is equivalent to a CI sum-over-states calculation of response properties.


 -------- OUTPUT FROM RESPONSE INPUT PROCESSING --------




  Linear Response single residue calculation
 -------------------------------------------


    4 input options by user.

 Print level                                    : IPRPP  =   2
 Maximum number of iterations for eigenval.eqs. : MAXITP =  60
 Threshold for convergence of eigenvalue eqs.   : THCPP  = 1.000D-03
 Maximum iterations in optimal orbital algorithm: MAXITO =   5

     50 Excitation energies are calculated for symmetry no.    1

      3 property residues are calculated with labels:

               XDIPLEN 
               YDIPLEN 
               ZDIPLEN 

 Old direct access AO file found, SORTA skipped.

 2-el. integral transformation level 4: Total CPU and WALL times (sec)       0.002       0.135


 CI energy            :       -7.882401933917294
 -- inactive part     :        0.995317637868339
 --   active part     :       -8.877719571785633
 -- nuclear repulsion :        0.995317637868339


                         *******************************
                         *** CI response calculation ***
                         *******************************

 ----------------------------------------------------------------
 ----- Linear response calculation
 ----- Symmetry of excitation/property operator(s)    1  ( A  )
 ----------------------------------------------------------------

 Number of excitations of this symmetry           50
 Number of response properties of this symmetry    0
 Number of C6/C8 properties of this symmetry       0


 Perturbation symmetry.     KSYMOP:           1
 Perturbation spin symmetry.TRPLET:           F
 Orbital variables.         KZWOPT:           0
 Configuration variables.   KZCONF:         105
 Total number of variables. KZVAR :         105



 --- EXCITATION ENERGIES AND TRANSITION MOMENT CALCULATION (MCTDHF) ---

 Operator symmetry = 1  ( A  ); triplet =   F


 ** RSPCTL MICROITERATION NUMBER    1

      Root  Residual tot.,    conf., and orb.    Bnorm      Eigenvalue
      ----------------------------------------------------------------
         1    1.90584D-03  1.91D-03  0.00D+00  1.00D+00    1.33186D-01
         2    2.39161D-15  2.39D-15  0.00D+00  1.00D+00    1.85450D-01
         3    2.52129D-15  2.52D-15  0.00D+00  1.00D+00    1.85450D-01
         4    7.41916D-03  7.42D-03  0.00D+00  1.00D+00    5.63917D-01
         5    1.04307D-02  1.04D-02  0.00D+00  1.00D+00    6.60557D-01
         6    9.02631D-03  9.03D-03  0.00D+00  1.00D+00    6.67185D-01
         7    9.02631D-03  9.03D-03  0.00D+00  1.00D+00    6.67185D-01
         8    3.03525D-15  3.04D-15  0.00D+00  1.00D+00    6.96448D-01
         9    3.14405D-15  3.14D-15  0.00D+00  1.00D+00    6.96448D-01
        10    7.78322D-03  7.78D-03  0.00D+00  1.00D+00    7.51593D-01
        11    3.73282D-15  3.73D-15  0.00D+00  1.00D+00    8.32864D-01
        12    4.39046D-15  4.39D-15  0.00D+00  1.00D+00    8.32864D-01
        13    6.26588D-03  6.27D-03  0.00D+00  1.00D+00    8.75936D-01
        14    3.02212D-02  3.02D-02  0.00D+00  1.00D+00    1.09082D+00
        15    2.70090D-02  2.70D-02  0.00D+00  1.00D+00    2.05663D+00
        16    3.78679D-15  3.79D-15  0.00D+00  1.00D+00    2.12401D+00
        17    3.94007D-15  3.94D-15  0.00D+00  1.00D+00    2.12401D+00
        18    1.98365D-02  1.98D-02  0.00D+00  1.00D+00    2.22907D+00
        19    4.16079D-15  4.16D-15  0.00D+00  1.00D+00    2.25543D+00
        20    6.50967D-15  6.51D-15  0.00D+00  1.00D+00    2.25543D+00
        21    9.19334D-15  9.19D-15  0.00D+00  1.00D+00    2.31033D+00
        22    4.46662D-15  4.47D-15  0.00D+00  1.00D+00    2.31057D+00
        23    6.68079D-15  6.68D-15  0.00D+00  1.00D+00    2.31057D+00
        24    1.32059D-02  1.32D-02  0.00D+00  1.00D+00    2.31628D+00
        25    1.32059D-02  1.32D-02  0.00D+00  1.00D+00    2.31628D+00
        26    1.37951D-02  1.38D-02  0.00D+00  1.00D+00    2.37614D+00
        27    2.45604D-02  2.46D-02  0.00D+00  1.00D+00    2.47262D+00
        28    2.13951D-02  2.14D-02  0.00D+00  1.00D+00    2.54895D+00
        29    8.17720D-15  8.18D-15  0.00D+00  1.00D+00    2.56575D+00
        30    1.24485D-14  1.24D-14  0.00D+00  1.00D+00    2.56575D+00
        31    4.30036D-15  4.30D-15  0.00D+00  1.00D+00    2.67809D+00
        32    6.40964D-15  6.41D-15  0.00D+00  1.00D+00    2.67809D+00
        33    2.08086D-02  2.08D-02  0.00D+00  1.00D+00    2.69917D+00
        34    1.75588D-02  1.76D-02  0.00D+00  1.00D+00    2.74471D+00
        35    1.75588D-02  1.76D-02  0.00D+00  1.00D+00    2.74471D+00
        36    9.94244D-15  9.94D-15  0.00D+00  1.00D+00    2.77862D+00
        37    5.42578D-15  5.43D-15  0.00D+00  1.00D+00    2.77862D+00
        38    2.06051D-02  2.06D-02  0.00D+00  1.00D+00    2.79040D+00
        39    9.06943D-15  9.07D-15  0.00D+00  1.00D+00    2.80058D+00
        40    3.72877D-15  3.73D-15  0.00D+00  1.00D+00    2.81149D+00
        41    7.41902D-15  7.42D-15  0.00D+00  1.00D+00    2.81149D+00
        42    2.86925D-02  2.87D-02  0.00D+00  1.00D+00    2.87785D+00
        43    4.57612D-14  4.58D-14  0.00D+00  1.00D+00    2.92268D+00
        44    1.74959D-14  1.75D-14  0.00D+00  1.00D+00    2.92268D+00
        45    4.04971D-02  4.05D-02  0.00D+00  1.00D+00    2.92570D+00
        46    4.04971D-02  4.05D-02  0.00D+00  1.00D+00    2.92570D+00
        47    1.56354D-14  1.56D-14  0.00D+00  1.00D+00    2.92823D+00
        48    2.18007D-14  2.18D-14  0.00D+00  1.00D+00    2.98027D+00
        49    2.25040D-14  2.25D-14  0.00D+00  1.00D+00    2.98027D+00
        50    3.54439D-02  3.54D-02  0.00D+00  1.00D+00    3.01431D+00
RSPORT:    8 out of   23 new trial vectors linear dependent

 ** RSPCTL MICROITERATION NUMBER    2

      Root  Residual tot.,    conf., and orb.    Bnorm      Eigenvalue
      ----------------------------------------------------------------
         1    3.13867D-05  3.14D-05  0.00D+00  1.00D+00    1.33186D-01
         2    3.53351D-15  3.53D-15  0.00D+00  1.00D+00    1.85450D-01
         3    3.85823D-15  3.86D-15  0.00D+00  1.00D+00    1.85450D-01
         4    7.36959D-05  7.37D-05  0.00D+00  1.00D+00    5.63907D-01
         5    1.33920D-04  1.34D-04  0.00D+00  1.00D+00    6.60538D-01
         6    2.36247D-04  2.36D-04  0.00D+00  1.00D+00    6.67171D-01
         7    2.55095D-04  2.55D-04  0.00D+00  1.00D+00    6.67171D-01
         8    4.86812D-15  4.87D-15  0.00D+00  1.00D+00    6.96448D-01
         9    3.88019D-15  3.88D-15  0.00D+00  1.00D+00    6.96448D-01
        10    8.00803D-05  8.01D-05  0.00D+00  1.00D+00    7.51582D-01
        11    3.11294D-15  3.11D-15  0.00D+00  1.00D+00    8.32864D-01
        12    3.01269D-15  3.01D-15  0.00D+00  1.00D+00    8.32864D-01
        13    6.95527D-05  6.96D-05  0.00D+00  1.00D+00    8.75929D-01
        14    7.11933D-04  7.12D-04  0.00D+00  1.00D+00    1.09065D+00
        15    7.17624D-04  7.18D-04  0.00D+00  1.00D+00    2.05646D+00
        16    3.43102D-15  3.43D-15  0.00D+00  1.00D+00    2.12401D+00
        17    7.83110D-15  7.83D-15  0.00D+00  1.00D+00    2.12401D+00
        18    5.06783D-04  5.07D-04  0.00D+00  1.00D+00    2.22898D+00
        19    4.01210D-15  4.01D-15  0.00D+00  1.00D+00    2.25543D+00
        20    4.11987D-15  4.12D-15  0.00D+00  1.00D+00    2.25543D+00
        21    5.02887D-15  5.03D-15  0.00D+00  1.00D+00    2.31033D+00
        22    3.60082D-15  3.60D-15  0.00D+00  1.00D+00    2.31057D+00
        23    4.26876D-15  4.27D-15  0.00D+00  1.00D+00    2.31057D+00
        24    4.82636D-04  4.83D-04  0.00D+00  1.00D+00    2.31624D+00
        25    5.21062D-04  5.21D-04  0.00D+00  1.00D+00    2.31624D+00
        26    3.52548D-04  3.53D-04  0.00D+00  1.00D+00    2.37610D+00
        27    1.81898D-04  1.82D-04  0.00D+00  1.00D+00    2.47247D+00
        28    6.17654D-04  6.18D-04  0.00D+00  1.00D+00    2.54883D+00
        29    5.53530D-15  5.54D-15  0.00D+00  1.00D+00    2.56575D+00
        30    7.03794D-15  7.04D-15  0.00D+00  1.00D+00    2.56575D+00
        31    5.13014D-15  5.13D-15  0.00D+00  1.00D+00    2.67809D+00
        32    5.18353D-15  5.18D-15  0.00D+00  1.00D+00    2.67809D+00
        33    6.13750D-04  6.14D-04  0.00D+00  1.00D+00    2.69905D+00
        34    7.16280D-04  7.16D-04  0.00D+00  1.00D+00    2.74462D+00
        35    7.73243D-04  7.73D-04  0.00D+00  1.00D+00    2.74462D+00
        36    6.60047D-15  6.60D-15  0.00D+00  1.00D+00    2.77862D+00
        37    9.07633D-15  9.08D-15  0.00D+00  1.00D+00    2.77862D+00
        38    4.42171D-04  4.42D-04  0.00D+00  1.00D+00    2.79029D+00
        39    3.86120D-15  3.86D-15  0.00D+00  1.00D+00    2.80058D+00
        40    3.26076D-15  3.26D-15  0.00D+00  1.00D+00    2.81149D+00
        41    1.02563D-14  1.03D-14  0.00D+00  1.00D+00    2.81149D+00
        42    8.47057D-04  8.47D-04  0.00D+00  1.00D+00    2.87763D+00
        43    5.02790D-15  5.03D-15  0.00D+00  1.00D+00    2.92268D+00
        44    7.77763D-15  7.78D-15  0.00D+00  1.00D+00    2.92268D+00
        45    1.73076D-03  1.73D-03  0.00D+00  1.00D+00    2.92524D+00
        46    1.86831D-03  1.87D-03  0.00D+00  1.00D+00    2.92524D+00
        47    3.08327D-15  3.08D-15  0.00D+00  1.00D+00    2.92823D+00
        48    2.26325D-14  2.26D-14  0.00D+00  1.00D+00    2.98027D+00
        49    2.41225D-14  2.41D-14  0.00D+00  1.00D+00    2.98027D+00
        50    1.12424D-03  1.12D-03  0.00D+00  1.00D+00    3.01395D+00

 ** RSPCTL MICROITERATION NUMBER    3

      Root  Residual tot.,    conf., and orb.    Bnorm      Eigenvalue
      ----------------------------------------------------------------
         1    1.01559D-05  1.02D-05  0.00D+00  1.00D+00    1.33186D-01
         2    5.78485D-15  5.78D-15  0.00D+00  1.00D+00    1.85450D-01
         3    3.81966D-15  3.82D-15  0.00D+00  1.00D+00    1.85450D-01
         4    6.73010D-05  6.73D-05  0.00D+00  1.00D+00    5.63907D-01
         5    6.52738D-05  6.53D-05  0.00D+00  1.00D+00    6.60538D-01
         6    1.24031D-05  1.24D-05  0.00D+00  1.00D+00    6.67171D-01
         7    1.28174D-05  1.28D-05  0.00D+00  1.00D+00    6.67171D-01
         8    4.49763D-15  4.50D-15  0.00D+00  1.00D+00    6.96448D-01
         9    4.17000D-15  4.17D-15  0.00D+00  1.00D+00    6.96448D-01
        10    5.41976D-05  5.42D-05  0.00D+00  1.00D+00    7.51582D-01
        11    3.16961D-15  3.17D-15  0.00D+00  1.00D+00    8.32864D-01
        12    5.63560D-15  5.64D-15  0.00D+00  1.00D+00    8.32864D-01
        13    6.95658D-05  6.96D-05  0.00D+00  1.00D+00    8.75929D-01
        14    2.61833D-04  2.62D-04  0.00D+00  1.00D+00    1.09065D+00
        15    4.27724D-04  4.28D-04  0.00D+00  1.00D+00    2.05646D+00
        16    5.40990D-15  5.41D-15  0.00D+00  1.00D+00    2.12401D+00
        17    4.83488D-15  4.83D-15  0.00D+00  1.00D+00    2.12401D+00
        18    3.98310D-04  3.98D-04  0.00D+00  1.00D+00    2.22897D+00
        19    6.35648D-15  6.36D-15  0.00D+00  1.00D+00    2.25543D+00
        20    8.30414D-15  8.30D-15  0.00D+00  1.00D+00    2.25543D+00
        21    4.63312D-15  4.63D-15  0.00D+00  1.00D+00    2.31033D+00
        22    4.47702D-15  4.48D-15  0.00D+00  1.00D+00    2.31057D+00
        23    4.05544D-15  4.06D-15  0.00D+00  1.00D+00    2.31057D+00
        24    1.01473D-05  1.01D-05  0.00D+00  1.00D+00    2.31624D+00
        25    1.05117D-05  1.05D-05  0.00D+00  1.00D+00    2.31624D+00
        26    2.44467D-05  2.44D-05  0.00D+00  1.00D+00    2.37610D+00
        27    1.06554D-05  1.07D-05  0.00D+00  1.00D+00    2.47247D+00
        28    4.55764D-04  4.56D-04  0.00D+00  1.00D+00    2.54883D+00
        29    5.12779D-15  5.13D-15  0.00D+00  1.00D+00    2.56575D+00
        30    5.47039D-15  5.47D-15  0.00D+00  1.00D+00    2.56575D+00
        31    5.04703D-15  5.05D-15  0.00D+00  1.00D+00    2.67809D+00
        32    9.97563D-15  9.98D-15  0.00D+00  1.00D+00    2.67809D+00
        33    3.69818D-04  3.70D-04  0.00D+00  1.00D+00    2.69905D+00
        34    5.11061D-06  5.11D-06  0.00D+00  1.00D+00    2.74462D+00
        35    5.29952D-06  5.30D-06  0.00D+00  1.00D+00    2.74462D+00
        36    6.07705D-15  6.08D-15  0.00D+00  1.00D+00    2.77862D+00
        37    1.23857D-14  1.24D-14  0.00D+00  1.00D+00    2.77862D+00
        38    2.84054D-04  2.84D-04  0.00D+00  1.00D+00    2.79029D+00
        39    3.51929D-15  3.52D-15  0.00D+00  1.00D+00    2.80058D+00
        40    4.82420D-15  4.82D-15  0.00D+00  1.00D+00    2.81149D+00
        41    8.91040D-15  8.91D-15  0.00D+00  1.00D+00    2.81149D+00
        42    4.85726D-05  4.86D-05  0.00D+00  1.00D+00    2.87763D+00
        43    5.77931D-15  5.78D-15  0.00D+00  1.00D+00    2.92268D+00
        44    9.83299D-15  9.83D-15  0.00D+00  1.00D+00    2.92268D+00
        45    3.42332D-08  3.42D-08  0.00D+00  1.00D+00    2.92524D+00
        46    4.95837D-10  4.96D-10  0.00D+00  1.00D+00    2.92524D+00
        47    3.79061D-15  3.79D-15  0.00D+00  1.00D+00    2.92823D+00
        48    2.38418D-14  2.38D-14  0.00D+00  1.00D+00    2.98027D+00
        49    2.35053D-14  2.35D-14  0.00D+00  1.00D+00    2.98027D+00
        50    6.23136D-07  6.23D-07  0.00D+00  1.00D+00    3.01395D+00

 *** THE REQUESTED   50 SOLUTION VECTORS CONVERGED

 Convergence of RSP solution vectors, threshold = 1.00D-03
 ---------------------------------------------------------------
 (dimension of paired reduced space:  136)
 RSP solution vector no.    1; norm of residual   1.02D-05
 RSP solution vector no.    2; norm of residual   5.78D-15
 RSP solution vector no.    3; norm of residual   3.82D-15
 RSP solution vector no.    4; norm of residual   6.73D-05
 RSP solution vector no.    5; norm of residual   6.53D-05
 RSP solution vector no.    6; norm of residual   1.24D-05
 RSP solution vector no.    7; norm of residual   1.28D-05
 RSP solution vector no.    8; norm of residual   4.50D-15
 RSP solution vector no.    9; norm of residual   4.17D-15
 RSP solution vector no.   10; norm of residual   5.42D-05
 RSP solution vector no.   11; norm of residual   3.17D-15
 RSP solution vector no.   12; norm of residual   5.64D-15
 RSP solution vector no.   13; norm of residual   6.96D-05
 RSP solution vector no.   14; norm of residual   2.62D-04
 RSP solution vector no.   15; norm of residual   4.28D-04
 RSP solution vector no.   16; norm of residual   5.41D-15
 RSP solution vector no.   17; norm of residual   4.83D-15
 RSP solution vector no.   18; norm of residual   3.98D-04
 RSP solution vector no.   19; norm of residual   6.36D-15
 RSP solution vector no.   20; norm of residual   8.30D-15
 RSP solution vector no.   21; norm of residual   4.63D-15
 RSP solution vector no.   22; norm of residual   4.48D-15
 RSP solution vector no.   23; norm of residual   4.06D-15
 RSP solution vector no.   24; norm of residual   1.01D-05
 RSP solution vector no.   25; norm of residual   1.05D-05
 RSP solution vector no.   26; norm of residual   2.44D-05
 RSP solution vector no.   27; norm of residual   1.07D-05
 RSP solution vector no.   28; norm of residual   4.56D-04
 RSP solution vector no.   29; norm of residual   5.13D-15
 RSP solution vector no.   30; norm of residual   5.47D-15
 RSP solution vector no.   31; norm of residual   5.05D-15
 RSP solution vector no.   32; norm of residual   9.98D-15
 RSP solution vector no.   33; norm of residual   3.70D-04
 RSP solution vector no.   34; norm of residual   5.11D-06
 RSP solution vector no.   35; norm of residual   5.30D-06
 RSP solution vector no.   36; norm of residual   6.08D-15
 RSP solution vector no.   37; norm of residual   1.24D-14
 RSP solution vector no.   38; norm of residual   2.84D-04
 RSP solution vector no.   39; norm of residual   3.52D-15
 RSP solution vector no.   40; norm of residual   4.82D-15
 RSP solution vector no.   41; norm of residual   8.91D-15
 RSP solution vector no.   42; norm of residual   4.86D-05
 RSP solution vector no.   43; norm of residual   5.78D-15
 RSP solution vector no.   44; norm of residual   9.83D-15
 RSP solution vector no.   45; norm of residual   3.42D-08
 RSP solution vector no.   46; norm of residual   4.96D-10
 RSP solution vector no.   47; norm of residual   3.79D-15
 RSP solution vector no.   48; norm of residual   2.38D-14
 RSP solution vector no.   49; norm of residual   2.35D-14
 RSP solution vector no.   50; norm of residual   6.23D-07

 *** RSPCTL MICROITERATIONS CONVERGED

@ Singlet transition operator label: XDIPLEN 
@ STATE NO:    1 *TRANSITION MOMENT: -0.73454840     *ENERGY(eV):   3.6241685    
@ STATE NO:    2 *TRANSITION MOMENT: -9.62629903E-16 *ENERGY(eV):   5.0463497    
@ STATE NO:    3 *TRANSITION MOMENT:  3.71061526E-17 *ENERGY(eV):   5.0463497    
@ STATE NO:    4 *TRANSITION MOMENT: -0.45094669     *ENERGY(eV):   15.344701    
@ STATE NO:    5 *TRANSITION MOMENT: -0.68985568     *ENERGY(eV):   17.974158    
@ STATE NO:    6 *TRANSITION MOMENT: -3.58993985E-10 *ENERGY(eV):   18.154658    
@ STATE NO:    7 *TRANSITION MOMENT:  1.40472853E-14 *ENERGY(eV):   18.154658    
@ STATE NO:    8 *TRANSITION MOMENT:  2.07360329E-15 *ENERGY(eV):   18.951316    
@ STATE NO:    9 *TRANSITION MOMENT: -3.15889577E-16 *ENERGY(eV):   18.951316    
@ STATE NO:   10 *TRANSITION MOMENT: -7.53005472E-02 *ENERGY(eV):   20.451588    
@ STATE NO:   11 *TRANSITION MOMENT: -8.20028547E-16 *ENERGY(eV):   22.663385    
@ STATE NO:   12 *TRANSITION MOMENT: -4.61393008E-16 *ENERGY(eV):   22.663385    
@ STATE NO:   13 *TRANSITION MOMENT:  4.50485847E-02 *ENERGY(eV):   23.835232    
@ STATE NO:   14 *TRANSITION MOMENT: -9.09843684E-02 *ENERGY(eV):   29.678120    
@ STATE NO:   15 *TRANSITION MOMENT: -0.21234061     *ENERGY(eV):   55.959099    

@ Singlet transition operator label: YDIPLEN 
@ STATE NO:    1 *TRANSITION MOMENT:  5.00050503E-11 *ENERGY(eV):   3.6241685    
@ STATE NO:    2 *TRANSITION MOMENT:  -1.2276281     *ENERGY(eV):   5.0463497    
@ STATE NO:    3 *TRANSITION MOMENT:  0.60312475     *ENERGY(eV):   5.0463497    
@ STATE NO:    4 *TRANSITION MOMENT:  4.91941513E-10 *ENERGY(eV):   15.344701    
@ STATE NO:    5 *TRANSITION MOMENT: -4.07026140E-10 *ENERGY(eV):   17.974158    
@ STATE NO:    6 *TRANSITION MOMENT:  5.45201134E-12 *ENERGY(eV):   18.154658    
@ STATE NO:    7 *TRANSITION MOMENT:  7.37398069E-16 *ENERGY(eV):   18.154658    
@ STATE NO:    8 *TRANSITION MOMENT:  5.45514285E-03 *ENERGY(eV):   18.951316    
@ STATE NO:    9 *TRANSITION MOMENT: -0.12459136     *ENERGY(eV):   18.951316    
@ STATE NO:   10 *TRANSITION MOMENT: -4.29584780E-10 *ENERGY(eV):   20.451588    
@ STATE NO:   11 *TRANSITION MOMENT: -2.05032993E-02 *ENERGY(eV):   22.663385    
@ STATE NO:   12 *TRANSITION MOMENT: -7.72493455E-02 *ENERGY(eV):   22.663385    
@ STATE NO:   13 *TRANSITION MOMENT: -5.23944587E-10 *ENERGY(eV):   23.835232    
@ STATE NO:   14 *TRANSITION MOMENT: -1.70573917E-09 *ENERGY(eV):   29.678120    
@ STATE NO:   15 *TRANSITION MOMENT: -3.98998193E-09 *ENERGY(eV):   55.959099    

@ Singlet transition operator label: ZDIPLEN 
@ STATE NO:    1 *TRANSITION MOMENT: -8.33172770E-11 *ENERGY(eV):   3.6241685    
@ STATE NO:    2 *TRANSITION MOMENT:  0.71371944     *ENERGY(eV):   5.0463497    
@ STATE NO:    3 *TRANSITION MOMENT:   1.2855764     *ENERGY(eV):   5.0463497    
@ STATE NO:    4 *TRANSITION MOMENT: -8.86056445E-10 *ENERGY(eV):   15.344701    
@ STATE NO:    5 *TRANSITION MOMENT:  7.04379316E-10 *ENERGY(eV):   17.974158    
@ STATE NO:    6 *TRANSITION MOMENT: -8.41533303E-12 *ENERGY(eV):   18.154658    
@ STATE NO:    7 *TRANSITION MOMENT:  4.06572862E-15 *ENERGY(eV):   18.154658    
@ STATE NO:    8 *TRANSITION MOMENT: -0.12497020     *ENERGY(eV):   18.951316    
@ STATE NO:    9 *TRANSITION MOMENT:  1.11491068E-02 *ENERGY(eV):   18.951316    
@ STATE NO:   10 *TRANSITION MOMENT:  7.80681831E-10 *ENERGY(eV):   20.451588    
@ STATE NO:   11 *TRANSITION MOMENT: -7.54285429E-02 *ENERGY(eV):   22.663385    
@ STATE NO:   12 *TRANSITION MOMENT:  1.19326855E-02 *ENERGY(eV):   22.663385    
@ STATE NO:   13 *TRANSITION MOMENT:  9.37712275E-10 *ENERGY(eV):   23.835232    
@ STATE NO:   14 *TRANSITION MOMENT:  2.92020624E-09 *ENERGY(eV):   29.678120    
@ STATE NO:   15 *TRANSITION MOMENT:  7.05464985E-09 *ENERGY(eV):   55.959099    


 **************************************************************************************
 *** @ Excit. operator sym 1 & ref. state sym 1 => excited state symmetry 1  ( A  ) ***
 **************************************************************************************



 @ Excited state no:    1 in symmetry 1  ( A  ) - singlet excitation
 -------------------------------------------------------------------

@ Excitation energy :  0.13318575     au
@                       3.6241685     eV;   29230.892     cm-1;   349.67912     kJ / mol

@ Total energy :       -7.7492162     au

@ Operator label: XDIPLEN ; Transition moment : -0.73454840     au
@ Oscillator strength (LENGTH)   :  4.79079203E-02  (X-polarization)

@ Operator label: YDIPLEN ; Transition moment :  5.00050503E-11 au
@ Oscillator strength (LENGTH)   :  2.22021086E-22  (Y-polarization)

@ Operator label: ZDIPLEN ; Transition moment : -8.33172770E-11 au
@ Oscillator strength (LENGTH)   :  6.16363087E-22  (Z-polarization)
@ Total oscillator strength (LENGTH)   :  4.79079203E-02

 Eigenvector for state no.  1

      Index(conf)                         Z operator          Y operator
      ----------                      --------------      --------------
           2                           -0.1902881839        0.0000000000
          16                           -0.9470755218        0.0000000000
          23                           -0.2351754233        0.0000000000

      102 elements with absolute value ≤ 1.00D-01 are not printed.

 Printout of coefficients in interval  3.1623E-01 to  1.0000E+00
 ===============================================================

  Coefficient of CSF no.        16 is     -0.94707552   -9.47075522E-01
  Orbital          1   2   3
  Spin coupling    2   1  -1

 Printout of coefficients in interval  1.0000E-01 to  3.1623E-01
 ===============================================================

  Coefficient of CSF no.         2 is     -0.19028818   -1.90288184E-01
  Orbital          1   3
  Spin coupling    2   2

  Coefficient of CSF no.        23 is     -0.23517542   -2.35175423E-01
  Orbital          1   3   6
  Spin coupling    2   1  -1

 Norm of printed CI vector ..      0.98846912

 Magnitude of CI coefficients
 ============================
 ( Ranges are relative to norm of vector :  1.00E+00 )

  10- 1 to 10- 0         3    0.98846912E+00      0.9884691167
  10- 2 to 10- 1         5    0.11263604E-01      0.9997327202
  10- 3 to 10- 2        19    0.26598030E-03      0.9999987005
  10- 4 to 10- 3         9    0.12835456E-05      0.9999999841
  10- 5 to 10- 4         5    0.15928822E-07      1.0000000000
  10- 7 to 10- 6         1    0.74657818E-13      1.0000000000
  10- 8 to 10- 7        19    0.22596999E-13      1.0000000000
  10- 9 to 10- 8        22    0.71210792E-15      1.0000000000
  10-10 to 10- 9         4    0.15564290E-17      1.0000000000
  10-11 to 10-10         2    0.38510343E-20      1.0000000000
  Number of coefficients less than 10^-11 times norm is           16


 @ Excited state no:    2 in symmetry 1  ( A  ) - singlet excitation
 -------------------------------------------------------------------

@ Excitation energy :  0.18544994     au
@                       5.0463497     eV;   40701.558     cm-1;   486.89875     kJ / mol

@ Total energy :       -7.6969520     au

@ Operator label: XDIPLEN ; Transition moment : -9.62629903E-16 au
@ Oscillator strength (LENGTH)   :  1.14565576E-31  (X-polarization)

@ Operator label: YDIPLEN ; Transition moment :  -1.2276281     au
@ Oscillator strength (LENGTH)   :  0.18632412      (Y-polarization)

@ Operator label: ZDIPLEN ; Transition moment :  0.71371944     au
@ Oscillator strength (LENGTH)   :  6.29782369E-02  (Z-polarization)
@ Total oscillator strength (LENGTH)   :  0.24930235    

 Eigenvector for state no.  2

      Index(conf)                         Z operator          Y operator
      ----------                      --------------      --------------
          17                           -0.6381301726        0.0000000000
          18                           -0.1130457132        0.0000000000
          19                           -0.6989052495        0.0000000000
          20                           -0.1238121088        0.0000000000
          24                           -0.1858672620        0.0000000000
          25                           -0.2035691317        0.0000000000

       99 elements with absolute value ≤ 1.00D-01 are not printed.

 Printout of coefficients in interval  3.1623E-01 to  1.0000E+00
 ===============================================================

  Coefficient of CSF no.        17 is     -0.63813017   -6.38130173E-01
  Orbital          1   2   4
  Spin coupling    2   1  -1

  Coefficient of CSF no.        19 is     -0.69890525   -6.98905250E-01
  Orbital          1   2   5
  Spin coupling    2   1  -1

 Printout of coefficients in interval  1.0000E-01 to  3.1623E-01
 ===============================================================

  Coefficient of CSF no.        18 is     -0.11304571   -1.13045713E-01
  Orbital          1   3   4
  Spin coupling    2   1  -1

  Coefficient of CSF no.        20 is     -0.12381211   -1.23812109E-01
  Orbital          1   3   5
  Spin coupling    2   1  -1

  Coefficient of CSF no.        24 is     -0.18586726   -1.85867262E-01
  Orbital          1   4   6
  Spin coupling    2   1  -1

  Coefficient of CSF no.        25 is     -0.20356913   -2.03569132E-01
  Orbital          1   5   6
  Spin coupling    2   1  -1

 Norm of printed CI vector ..      0.99977447

 Magnitude of CI coefficients
 ============================
 ( Ranges are relative to norm of vector :  1.00E+00 )

  10- 1 to 10- 0         6    0.99977447E+00      0.9997744670
  10- 3 to 10- 2        22    0.21843264E-03      0.9999928996
  10- 4 to 10- 3        18    0.70968171E-05      0.9999999965
  10- 5 to 10- 4         2    0.35441363E-08      1.0000000000
  Number of coefficients less than 10^-11 times norm is           57


 @ Excited state no:    3 in symmetry 1  ( A  ) - singlet excitation
 -------------------------------------------------------------------

@ Excitation energy :  0.18544994     au
@                       5.0463497     eV;   40701.558     cm-1;   486.89875     kJ / mol

@ Total energy :       -7.6969520     au

@ Operator label: XDIPLEN ; Transition moment :  3.71061526E-17 au
@ Oscillator strength (LENGTH)   :  1.70226551E-34  (X-polarization)

@ Operator label: YDIPLEN ; Transition moment :  0.60312475     au
@ Oscillator strength (LENGTH)   :  4.49727811E-02  (Y-polarization)

@ Operator label: ZDIPLEN ; Transition moment :   1.2855764     au
@ Oscillator strength (LENGTH)   :  0.20432957      (Z-polarization)
@ Total oscillator strength (LENGTH)   :  0.24930235    

 Eigenvector for state no.  3

      Index(conf)                         Z operator          Y operator
      ----------                      --------------      --------------
          17                           -0.7522575123        0.0000000000
          18                           -0.1332635418        0.0000000000
          19                            0.5742711034        0.0000000000
          20                            0.1017329837        0.0000000000
          24                           -0.2191089689        0.0000000000
          25                            0.1672671223        0.0000000000

       99 elements with absolute value ≤ 1.00D-01 are not printed.

 Printout of coefficients in interval  3.1623E-01 to  1.0000E+00
 ===============================================================

  Coefficient of CSF no.        17 is     -0.75225751   -7.52257512E-01
  Orbital          1   2   4
  Spin coupling    2   1  -1

  Coefficient of CSF no.        19 is      0.57427110    5.74271103E-01
  Orbital          1   2   5
  Spin coupling    2   1  -1

 Printout of coefficients in interval  1.0000E-01 to  3.1623E-01
 ===============================================================

  Coefficient of CSF no.        18 is     -0.13326354   -1.33263542E-01
  Orbital          1   3   4
  Spin coupling    2   1  -1

  Coefficient of CSF no.        20 is      0.10173298    1.01732984E-01
  Orbital          1   3   5
  Spin coupling    2   1  -1

  Coefficient of CSF no.        24 is     -0.21910897   -2.19108969E-01
  Orbital          1   4   6
  Spin coupling    2   1  -1

  Coefficient of CSF no.        25 is      0.16726712    1.67267122E-01
  Orbital          1   5   6
  Spin coupling    2   1  -1

 Norm of printed CI vector ..      0.99977447

 Magnitude of CI coefficients
 ============================
 ( Ranges are relative to norm of vector :  1.00E+00 )

  10- 1 to 10- 0         6    0.99977447E+00      0.9997744670
  10- 3 to 10- 2        21    0.21749109E-03      0.9999919581
  10- 4 to 10- 3        19    0.80383725E-05      0.9999999965
  10- 5 to 10- 4         2    0.35441363E-08      1.0000000000
  Number of coefficients less than 10^-11 times norm is           57


 @ Excited state no:    4 in symmetry 1  ( A  ) - singlet excitation
 -------------------------------------------------------------------

@ Excitation energy :  0.56390741     au
@                       15.344701     eV;   123763.37     cm-1;   1480.5387     kJ / mol

@ Total energy :       -7.3184945     au

@ Operator label: XDIPLEN ; Transition moment : -0.45094669     au
@ Oscillator strength (LENGTH)   :  7.64481436E-02  (X-polarization)

@ Operator label: YDIPLEN ; Transition moment :  4.91941513E-10 au
@ Oscillator strength (LENGTH)   :  9.09794882E-20  (Y-polarization)

@ Operator label: ZDIPLEN ; Transition moment : -8.86056445E-10 au
@ Oscillator strength (LENGTH)   :  2.95147645E-19  (Z-polarization)
@ Total oscillator strength (LENGTH)   :  7.64481436E-02

 Eigenvector for state no.  4

      Index(conf)                         Z operator          Y operator
      ----------                      --------------      --------------
           2                            0.5667866111        0.0000000000
           4                           -0.3701012030        0.0000000000
           7                           -0.3701012073        0.0000000000
          16                           -0.2225996916        0.0000000000
          22                           -0.4194958930        0.0000000000
          23                            0.4188172938        0.0000000000

       99 elements with absolute value ≤ 1.00D-01 are not printed.

 Printout of coefficients in interval  3.1623E-01 to  1.0000E+00
 ===============================================================

  Coefficient of CSF no.         2 is      0.56678661    5.66786611E-01
  Orbital          1   3
  Spin coupling    2   2

  Coefficient of CSF no.         4 is     -0.37010120   -3.70101203E-01
  Orbital          1   4
  Spin coupling    2   2

  Coefficient of CSF no.         7 is     -0.37010121   -3.70101207E-01
  Orbital          1   5
  Spin coupling    2   2

  Coefficient of CSF no.        22 is     -0.41949589   -4.19495893E-01
  Orbital          1   2   6
  Spin coupling    2   1  -1

  Coefficient of CSF no.        23 is      0.41881729    4.18817294E-01
  Orbital          1   3   6
  Spin coupling    2   1  -1

 Printout of coefficients in interval  1.0000E-01 to  3.1623E-01
 ===============================================================

  Coefficient of CSF no.        16 is     -0.22259969   -2.22599692E-01
  Orbital          1   2   3
  Spin coupling    2   1  -1

 Norm of printed CI vector ..      0.99613222

 Magnitude of CI coefficients
 ============================
 ( Ranges are relative to norm of vector :  1.00E+00 )

  10- 1 to 10- 0         6    0.99613222E+00      0.9961322191
  10- 2 to 10- 1         4    0.36612529E-02      0.9997934721
  10- 3 to 10- 2        16    0.20294905E-03      0.9999964211
  10- 4 to 10- 3        12    0.35598086E-05      0.9999999809
  10- 5 to 10- 4         3    0.19060396E-07      1.0000000000
  10- 6 to 10- 5         1    0.58654228E-11      1.0000000000
  10- 7 to 10- 6        18    0.15926042E-11      1.0000000000
  10- 8 to 10- 7        22    0.58356089E-13      1.0000000000
  10- 9 to 10- 8         5    0.12037516E-15      1.0000000000
  10-10 to 10- 9         2    0.60244329E-18      1.0000000000
  Number of coefficients less than 10^-11 times norm is           16


 @ Excited state no:    5 in symmetry 1  ( A  ) - singlet excitation
 -------------------------------------------------------------------

@ Excitation energy :  0.66053818     au
@                       17.974158     eV;   144971.37     cm-1;   1734.2427     kJ / mol

@ Total energy :       -7.2218637     au

@ Operator label: XDIPLEN ; Transition moment : -0.68985568     au
@ Oscillator strength (LENGTH)   :  0.20956713      (X-polarization)

@ Operator label: YDIPLEN ; Transition moment : -4.07026140E-10 au
@ Oscillator strength (LENGTH)   :  7.29543632E-20  (Y-polarization)

@ Operator label: ZDIPLEN ; Transition moment :  7.04379316E-10 au
@ Oscillator strength (LENGTH)   :  2.18484111E-19  (Z-polarization)
@ Total oscillator strength (LENGTH)   :  0.20956713    

 Eigenvector for state no.  5

      Index(conf)                         Z operator          Y operator
      ----------                      --------------      --------------
           2                           -0.4118324723        0.0000000000
          16                            0.1017336729        0.0000000000
          22                           -0.8722290744        0.0000000000
          23                           -0.2399027367        0.0000000000

      101 elements with absolute value ≤ 1.00D-01 are not printed.

 Printout of coefficients in interval  3.1623E-01 to  1.0000E+00
 ===============================================================

  Coefficient of CSF no.         2 is     -0.41183247   -4.11832472E-01
  Orbital          1   3
  Spin coupling    2   2

  Coefficient of CSF no.        22 is     -0.87222907   -8.72229074E-01
  Orbital          1   2   6
  Spin coupling    2   1  -1

 Printout of coefficients in interval  1.0000E-01 to  3.1623E-01
 ===============================================================

  Coefficient of CSF no.        16 is      0.10173367    1.01733673E-01
  Orbital          1   2   3
  Spin coupling    2   1  -1

  Coefficient of CSF no.        23 is     -0.23990274   -2.39902737E-01
  Orbital          1   3   6
  Spin coupling    2   1  -1

 Norm of printed CI vector ..      0.99829261

 Magnitude of CI coefficients
 ============================
 ( Ranges are relative to norm of vector :  1.00E+00 )

  10- 1 to 10- 0         4    0.99829261E+00      0.9982926067
  10- 2 to 10- 1         5    0.14742301E-02      0.9997668368
  10- 3 to 10- 2        15    0.22817179E-03      0.9999950086
  10- 4 to 10- 3        15    0.49876529E-05      0.9999999963
  10- 5 to 10- 4         2    0.37287415E-08      1.0000000000
  10- 6 to 10- 5         1    0.45022253E-11      1.0000000000
  10- 7 to 10- 6        17    0.12827867E-11      1.0000000000
  10- 8 to 10- 7        24    0.56928491E-13      1.0000000000
  10- 9 to 10- 8         4    0.79432293E-16      1.0000000000
  10-10 to 10- 9         2    0.32209128E-18      1.0000000000
  Number of coefficients less than 10^-11 times norm is           16


 @ Excited state no:    6 in symmetry 1  ( A  ) - singlet excitation
 -------------------------------------------------------------------

@ Excitation energy :  0.66717144     au
@                       18.154658     eV;   146427.20     cm-1;   1751.6583     kJ / mol

@ Total energy :       -7.2152305     au

@ Operator label: XDIPLEN ; Transition moment : -3.58993985E-10 au
@ Oscillator strength (LENGTH)   :  5.73218940E-20  (X-polarization)

@ Operator label: YDIPLEN ; Transition moment :  5.45201134E-12 au
@ Oscillator strength (LENGTH)   :  1.32208594E-23  (Y-polarization)

@ Operator label: ZDIPLEN ; Transition moment : -8.41533303E-12 au
@ Oscillator strength (LENGTH)   :  3.14984223E-23  (Z-polarization)
@ Total oscillator strength (LENGTH)   :  5.73666133E-20

 Eigenvector for state no.  6

      Index(conf)                         Z operator          Y operator
      ----------                      --------------      --------------
           4                           -0.7068764156        0.0000000000
           7                            0.7068764160        0.0000000000

      103 elements with absolute value ≤ 1.00D-01 are not printed.

 Printout of coefficients in interval  3.1623E-01 to  1.0000E+00
 ===============================================================

  Coefficient of CSF no.         4 is     -0.70687642   -7.06876416E-01
  Orbital          1   4
  Spin coupling    2   2

  Coefficient of CSF no.         7 is      0.70687642    7.06876416E-01
  Orbital          1   5
  Spin coupling    2   2

 Printout of coefficients in interval  1.0000E-01 to  3.1623E-01
 ===============================================================
   ( no coefficients )

 Norm of printed CI vector ..      0.99934853

 Magnitude of CI coefficients
 ============================
 ( Ranges are relative to norm of vector :  1.00E+00 )

  10- 1 to 10- 0         2    0.99934853E+00      0.9993485344
  10- 2 to 10- 1         4    0.57657927E-03      0.9999251137
  10- 3 to 10- 2        12    0.73874089E-04      0.9999989877
  10- 4 to 10- 3         2    0.10115002E-05      0.9999999992
  10- 5 to 10- 4         1    0.75188487E-09      1.0000000000
  10- 7 to 10- 6         5    0.46363867E-12      1.0000000000
  10- 8 to 10- 7        12    0.29682838E-13      1.0000000000
  10- 9 to 10- 8        26    0.31818952E-15      1.0000000000
  10-10 to 10- 9        31    0.93106615E-17      1.0000000000
  10-11 to 10-10         6    0.17982922E-19      1.0000000000
  Number of coefficients less than 10^-11 times norm is            4


 @ Excited state no:    7 in symmetry 1  ( A  ) - singlet excitation
 -------------------------------------------------------------------

@ Excitation energy :  0.66717144     au
@                       18.154658     eV;   146427.20     cm-1;   1751.6583     kJ / mol

@ Total energy :       -7.2152305     au

@ Operator label: XDIPLEN ; Transition moment :  1.40472853E-14 au
@ Oscillator strength (LENGTH)   :  8.77669474E-29  (X-polarization)

@ Operator label: YDIPLEN ; Transition moment :  7.37398069E-16 au
@ Oscillator strength (LENGTH)   :  2.41852276E-31  (Y-polarization)

@ Operator label: ZDIPLEN ; Transition moment :  4.06572862E-15 au
@ Oscillator strength (LENGTH)   :  7.35229563E-30  (Z-polarization)
@ Total oscillator strength (LENGTH)   :  9.53610953E-29

 Eigenvector for state no.  7

      Index(conf)                         Z operator          Y operator
      ----------                      --------------      --------------
          21                           -0.9996742132        0.0000000000

      104 elements with absolute value ≤ 1.00D-01 are not printed.

 Printout of coefficients in interval  3.1623E-01 to  1.0000E+00
 ===============================================================

  Coefficient of CSF no.        21 is     -0.99967421   -9.99674213E-01
  Orbital          1   4   5
  Spin coupling    2   1  -1

 Printout of coefficients in interval  1.0000E-01 to  3.1623E-01
 ===============================================================
   ( no coefficients )

 Norm of printed CI vector ..      0.99934853

 Magnitude of CI coefficients
 ============================
 ( Ranges are relative to norm of vector :  1.00E+00 )

  10- 1 to 10- 0         1    0.99934853E+00      0.9993485325
  10- 2 to 10- 1         2    0.51767438E-03      0.9998662069
  10- 3 to 10- 2         8    0.13277989E-03      0.9999989868
  10- 4 to 10- 3         2    0.10116835E-05      0.9999999985
  10- 5 to 10- 4         2    0.15430877E-08      1.0000000000
  10- 7 to 10- 6        10    0.97178711E-12      1.0000000000
  10- 8 to 10- 7         8    0.34135615E-13      1.0000000000
  Number of coefficients less than 10^-11 times norm is           72


 @ Excited state no:    8 in symmetry 1  ( A  ) - singlet excitation
 -------------------------------------------------------------------

@ Excitation energy :  0.69644808     au
@                       18.951316     eV;   152852.68     cm-1;   1828.5241     kJ / mol

@ Total energy :       -7.1859539     au

@ Operator label: XDIPLEN ; Transition moment :  2.07360329E-15 au
@ Oscillator strength (LENGTH)   :  1.99640585E-30  (X-polarization)

@ Operator label: YDIPLEN ; Transition moment :  5.45514285E-03 au
@ Oscillator strength (LENGTH)   :  1.38168722E-05  (Y-polarization)

@ Operator label: ZDIPLEN ; Transition moment : -0.12497020     au
@ Oscillator strength (LENGTH)   :  7.25120921E-03  (Z-polarization)
@ Total oscillator strength (LENGTH)   :  7.26502608E-03

 Eigenvector for state no.  8

      Index(conf)                         Z operator          Y operator
      ----------                      --------------      --------------
          17                            0.2248501018        0.0000000000
          18                           -0.9375879098        0.0000000000
          20                            0.1606866738        0.0000000000
          24                           -0.2021904895        0.0000000000

      101 elements with absolute value ≤ 1.00D-01 are not printed.

 Printout of coefficients in interval  3.1623E-01 to  1.0000E+00
 ===============================================================

  Coefficient of CSF no.        18 is     -0.93758791   -9.37587910E-01
  Orbital          1   3   4
  Spin coupling    2   1  -1

 Printout of coefficients in interval  1.0000E-01 to  3.1623E-01
 ===============================================================

  Coefficient of CSF no.        17 is      0.22485010    2.24850102E-01
  Orbital          1   2   4
  Spin coupling    2   1  -1

  Coefficient of CSF no.        20 is      0.16068667    1.60686674E-01
  Orbital          1   3   5
  Spin coupling    2   1  -1

  Coefficient of CSF no.        24 is     -0.20219049   -2.02190490E-01
  Orbital          1   4   6
  Spin coupling    2   1  -1

 Norm of printed CI vector ..      0.99632986

 Magnitude of CI coefficients
 ============================
 ( Ranges are relative to norm of vector :  1.00E+00 )

  10- 1 to 10- 0         4    0.99632986E+00      0.9963298581
  10- 2 to 10- 1         4    0.34765321E-02      0.9998063902
  10- 3 to 10- 2        15    0.18862568E-03      0.9999950159
  10- 4 to 10- 3        18    0.49582255E-05      0.9999999741
  10- 5 to 10- 4         6    0.25850147E-07      1.0000000000
  10- 6 to 10- 5         1    0.84057653E-11      1.0000000000
  Number of coefficients less than 10^-11 times norm is           57


 @ Excited state no:    9 in symmetry 1  ( A  ) - singlet excitation
 -------------------------------------------------------------------

@ Excitation energy :  0.69644808     au
@                       18.951316     eV;   152852.68     cm-1;   1828.5241     kJ / mol

@ Total energy :       -7.1859539     au

@ Operator label: XDIPLEN ; Transition moment : -3.15889577E-16 au
@ Oscillator strength (LENGTH)   :  4.63306165E-32  (X-polarization)

@ Operator label: YDIPLEN ; Transition moment : -0.12459136     au
@ Oscillator strength (LENGTH)   :  7.20731255E-03  (Y-polarization)

@ Operator label: ZDIPLEN ; Transition moment :  1.11491068E-02 au
@ Oscillator strength (LENGTH)   :  5.77135300E-05  (Z-polarization)
@ Total oscillator strength (LENGTH)   :  7.26502608E-03

 Eigenvector for state no.  9

      Index(conf)                         Z operator          Y operator
      ----------                      --------------      --------------
          18                            0.2834828055        0.0000000000
          19                           -0.2177629562        0.0000000000
          20                            0.9080356792        0.0000000000
          25                            0.1958175618        0.0000000000

      101 elements with absolute value ≤ 1.00D-01 are not printed.

[...]
  10- 5 to 10- 4         2    0.63692719E-08      1.0000000000
  Number of coefficients less than 10^-11 times norm is           57


 @ Excited state no:   45 in symmetry 1  ( A  ) - singlet excitation
 -------------------------------------------------------------------

@ Excitation energy :   2.9252390     au
@                       79.599802     eV;   642015.74     cm-1;   7680.2138     kJ / mol

@ Total energy :       -4.9571630     au

@ Operator label: XDIPLEN ; Transition moment : -8.75561646E-12 au
@ Oscillator strength (LENGTH)   :  1.49500812E-22  (X-polarization)

@ Operator label: YDIPLEN ; Transition moment :  4.38530386E-13 au
@ Oscillator strength (LENGTH)   :  3.75032993E-25  (Y-polarization)

@ Operator label: ZDIPLEN ; Transition moment : -7.86487792E-13 au
@ Oscillator strength (LENGTH)   :  1.20629649E-24  (Z-polarization)
@ Total oscillator strength (LENGTH)   :  1.51082141E-22

 Eigenvector for state no. 45

      Index(conf)                         Z operator          Y operator
      ----------                      --------------      --------------
          46                           -0.1148490604        0.0000000000
          47                           -0.2166483350        0.0000000000
          52                            0.6568228919        0.0000000000
          56                            0.1148490608        0.0000000000
          57                            0.2166483348        0.0000000000
          62                           -0.6568228919        0.0000000000

       99 elements with absolute value ≤ 1.00D-01 are not printed.

 Printout of coefficients in interval  3.1623E-01 to  1.0000E+00
 ===============================================================

  Coefficient of CSF no.        52 is      0.65682289    6.56822892E-01
  Orbital          4   1   6
  Spin coupling    2   1  -1

  Coefficient of CSF no.        62 is     -0.65682289   -6.56822892E-01
  Orbital          5   1   6
  Spin coupling    2   1  -1

 Printout of coefficients in interval  1.0000E-01 to  3.1623E-01
 ===============================================================

  Coefficient of CSF no.        46 is     -0.11484906   -1.14849060E-01
  Orbital          4   1   2
  Spin coupling    2   1  -1

  Coefficient of CSF no.        47 is     -0.21664833   -2.16648335E-01
  Orbital          4   1   3
  Spin coupling    2   1  -1

  Coefficient of CSF no.        56 is      0.11484906    1.14849061E-01
  Orbital          5   1   2
  Spin coupling    2   1  -1

  Coefficient of CSF no.        57 is      0.21664833    2.16648335E-01
  Orbital          5   1   3
  Spin coupling    2   1  -1

 Printout of coefficients in interval  1.0000E-01 to  1.0000E-01
 ===============================================================
   ( no coefficients )

 Norm of printed CI vector ..      0.98308624

 Magnitude of CI coefficients
 ============================
 ( Ranges are relative to norm of vector :  1.00E+00 )

  10- 1 to 10- 0         6    0.98308624E+00      0.9830862381
  10- 2 to 10- 1        12    0.16695456E-01      0.9997816941
  10- 3 to 10- 2        11    0.21657075E-03      0.9999982648
  10- 4 to 10- 3         4    0.17351627E-05      1.0000000000
  10- 9 to 10- 8         4    0.12224820E-15      1.0000000000
  10-10 to 10- 9        25    0.24622174E-17      1.0000000000
  10-11 to 10-10        30    0.63602822E-19      1.0000000000
  Number of coefficients less than 10^-11 times norm is           13

@ Singlet transition operator label: XDIPLEN 
@ STATE NO:   46 *TRANSITION MOMENT:  1.24505251E-13 *ENERGY(eV):   79.599802    
@ STATE NO:   47 *TRANSITION MOMENT:  4.30747322E-26 *ENERGY(eV):   79.681155    
@ STATE NO:   48 *TRANSITION MOMENT: -6.33988427E-17 *ENERGY(eV):   81.097388    
@ STATE NO:   49 *TRANSITION MOMENT: -9.96291002E-17 *ENERGY(eV):   81.097388    
@ STATE NO:   50 *TRANSITION MOMENT: -1.02837527E-03 *ENERGY(eV):   82.013761    

@ Singlet transition operator label: YDIPLEN 
@ STATE NO:   46 *TRANSITION MOMENT: -5.28070120E-15 *ENERGY(eV):   79.599802    
@ STATE NO:   47 *TRANSITION MOMENT:  1.65483529E-16 *ENERGY(eV):   79.681155    
@ STATE NO:   48 *TRANSITION MOMENT: -6.20512192E-05 *ENERGY(eV):   81.097388    
@ STATE NO:   49 *TRANSITION MOMENT: -2.12787963E-04 *ENERGY(eV):   81.097388    
@ STATE NO:   50 *TRANSITION MOMENT: -8.22964481E-12 *ENERGY(eV):   82.013761    

@ Singlet transition operator label: ZDIPLEN 
@ STATE NO:   46 *TRANSITION MOMENT:  1.15545602E-14 *ENERGY(eV):   79.599802    
@ STATE NO:   47 *TRANSITION MOMENT:  9.14358335E-17 *ENERGY(eV):   79.681155    
@ STATE NO:   48 *TRANSITION MOMENT:  2.41714345E-04 *ENERGY(eV):   81.097388    
@ STATE NO:   49 *TRANSITION MOMENT:  1.30374312E-04 *ENERGY(eV):   81.097388    
@ STATE NO:   50 *TRANSITION MOMENT:  1.47477505E-11 *ENERGY(eV):   82.013761    


 **************************************************************************************
 *** @ Excit. operator sym 1 & ref. state sym 1 => excited state symmetry 1  ( A  ) ***
 **************************************************************************************



 @ Excited state no:   46 in symmetry 1  ( A  ) - singlet excitation
 -------------------------------------------------------------------

@ Excitation energy :   2.9252390     au
@                       79.599802     eV;   642015.74     cm-1;   7680.2138     kJ / mol

@ Total energy :       -4.9571630     au

@ Operator label: XDIPLEN ; Transition moment :  1.24505251E-13 au
@ Oscillator strength (LENGTH)   :  3.02305069E-26  (X-polarization)

@ Operator label: YDIPLEN ; Transition moment : -5.28070120E-15 au
@ Oscillator strength (LENGTH)   :  5.43817629E-29  (Y-polarization)

@ Operator label: ZDIPLEN ; Transition moment :  1.15545602E-14 au
@ Oscillator strength (LENGTH)   :  2.60361599E-28  (Z-polarization)
@ Total oscillator strength (LENGTH)   :  3.05452502E-26

 Eigenvector for state no. 46

      Index(conf)                         Z operator          Y operator
      ----------                      --------------      --------------
          81                           -0.1635161322        0.0000000000
          83                           -0.3084526560        0.0000000000
         100                            0.8098639568        0.0000000000
         101                           -0.4675751735        0.0000000000

      101 elements with absolute value ≤ 1.00D-01 are not printed.

 Printout of coefficients in interval  3.1623E-01 to  1.0000E+00
 ===============================================================

  Coefficient of CSF no.       100 is      0.80986396    8.09863957E-01
  Orbital          1   4   5   6
  Spin coupling    1   1  -1  -1

  Coefficient of CSF no.       101 is     -0.46757517   -4.67575173E-01
  Orbital          1   4   5   6
  Spin coupling    1  -1   1  -1

 Printout of coefficients in interval  1.0000E-01 to  3.1623E-01
 ===============================================================

  Coefficient of CSF no.        81 is     -0.16351613   -1.63516132E-01
  Orbital          1   2   4   5
  Spin coupling    1  -1   1  -1

  Coefficient of CSF no.        83 is     -0.30845266   -3.08452656E-01
  Orbital          1   3   4   5
  Spin coupling    1  -1   1  -1

 Printout of coefficients in interval  1.0000E-01 to  1.0000E-01
 ===============================================================
   ( no coefficients )

 Norm of printed CI vector ..      0.99638674

 Magnitude of CI coefficients
 ============================
 ( Ranges are relative to norm of vector :  1.00E+00 )

  10- 1 to 10- 0         4    0.99638674E+00      0.9963867379
  10- 2 to 10- 1         7    0.33690620E-02      0.9997557999
  10- 3 to 10- 2         8    0.24351891E-03      0.9999993188
  10- 4 to 10- 3        10    0.67227557E-06      0.9999999911
  10- 5 to 10- 4         4    0.89188262E-08      1.0000000000
  10-10 to 10- 9         1    0.14783712E-19      1.0000000000
  10-11 to 10-10         3    0.99404946E-20      1.0000000000
  Number of coefficients less than 10^-11 times norm is           68


 @ Excited state no:   47 in symmetry 1  ( A  ) - singlet excitation
 -------------------------------------------------------------------

@ Excitation energy :   2.9282287     au
@                       79.681155     eV;   642671.90     cm-1;   7688.0632     kJ / mol

@ Total energy :       -4.9541733     au

@ Operator label: XDIPLEN ; Transition moment :  4.30747322E-26 au
@ Oscillator strength (LENGTH)   :  3.62208720E-51  (X-polarization)

@ Operator label: YDIPLEN ; Transition moment :  1.65483529E-16 au
@ Oscillator strength (LENGTH)   :  5.34593010E-32  (Y-polarization)

@ Operator label: ZDIPLEN ; Transition moment :  9.14358335E-17 au
@ Oscillator strength (LENGTH)   :  1.63209933E-32  (Z-polarization)
@ Total oscillator strength (LENGTH)   :  6.97802943E-32

 Eigenvector for state no. 47

      Index(conf)                         Z operator          Y operator
      ----------                      --------------      --------------
          80                            0.2136893282        0.0000000000
          82                            0.1706239935        0.0000000000
         100                            0.4801064186        0.0000000000
         101                            0.8315687100        0.0000000000

      101 elements with absolute value ≤ 1.00D-01 are not printed.

 Printout of coefficients in interval  3.1623E-01 to  1.0000E+00
 ===============================================================

  Coefficient of CSF no.       100 is      0.48010642    4.80106419E-01
  Orbital          1   4   5   6
  Spin coupling    1   1  -1  -1

  Coefficient of CSF no.       101 is      0.83156871    8.31568710E-01
  Orbital          1   4   5   6
  Spin coupling    1  -1   1  -1

 Printout of coefficients in interval  1.0000E-01 to  3.1623E-01
 ===============================================================

  Coefficient of CSF no.        80 is      0.21368933    2.13689328E-01
  Orbital          1   2   4   5
  Spin coupling    1   1  -1  -1

  Coefficient of CSF no.        82 is      0.17062399    1.70623994E-01
  Orbital          1   3   4   5
  Spin coupling    1   1  -1  -1

 Printout of coefficients in interval  1.0000E-01 to  1.0000E-01
 ===============================================================
   ( no coefficients )

 Norm of printed CI vector ..      0.99678437

 Magnitude of CI coefficients
 ============================
 ( Ranges are relative to norm of vector :  1.00E+00 )

  10- 1 to 10- 0         4    0.99678437E+00      0.9967843688
  10- 2 to 10- 1         5    0.32156312E-02      1.0000000000
  Number of coefficients less than 10^-11 times norm is           96


 @ Excited state no:   48 in symmetry 1  ( A  ) - singlet excitation
 -------------------------------------------------------------------

@ Excitation energy :   2.9802743     au
@                       81.097388     eV;   654094.59     cm-1;   7824.7089     kJ / mol

@ Total energy :       -4.9021277     au

@ Operator label: XDIPLEN ; Transition moment : -6.33988427E-17 au
@ Oscillator strength (LENGTH)   :  7.98596928E-33  (X-polarization)

@ Operator label: YDIPLEN ; Transition moment : -6.20512192E-05 au
@ Oscillator strength (LENGTH)   :  7.65007359E-09  (Y-polarization)

@ Operator label: ZDIPLEN ; Transition moment :  2.41714345E-04 au
@ Oscillator strength (LENGTH)   :  1.16083321E-07  (Z-polarization)
@ Total oscillator strength (LENGTH)   :  1.23733395E-07

 Eigenvector for state no. 48

      Index(conf)                         Z operator          Y operator
      ----------                      --------------      --------------
          37                           -0.5434949473        0.0000000000
          89                           -0.1100823279        0.0000000000
          90                           -0.8144260349        0.0000000000

      102 elements with absolute value ≤ 1.00D-01 are not printed.

 Printout of coefficients in interval  3.1623E-01 to  1.0000E+00
 ===============================================================

  Coefficient of CSF no.        37 is     -0.54349495   -5.43494947E-01
  Orbital          3   1   4
  Spin coupling    2   1  -1

  Coefficient of CSF no.        90 is     -0.81442603   -8.14426035E-01
  Orbital          1   3   4   6
  Spin coupling    1   1  -1  -1

 Printout of coefficients in interval  1.0000E-01 to  3.1623E-01
 ===============================================================

  Coefficient of CSF no.        89 is     -0.11008233   -1.10082328E-01
  Orbital          1   2   4   6
  Spin coupling    1  -1   1  -1

 Printout of coefficients in interval  1.0000E-01 to  1.0000E-01
 ===============================================================
   ( no coefficients )

 Norm of printed CI vector ..      0.97079464

 Magnitude of CI coefficients
 ============================
 ( Ranges are relative to norm of vector :  1.00E+00 )

  10- 1 to 10- 0         3    0.97079464E+00      0.9707946430
  10- 2 to 10- 1        12    0.29039730E-01      0.9998343729
  10- 3 to 10- 2        17    0.16365883E-03      0.9999980317
  10- 4 to 10- 3         9    0.19500190E-05      0.9999999817
  10- 5 to 10- 4         7    0.18263352E-07      1.0000000000
  Number of coefficients less than 10^-11 times norm is           57


 @ Excited state no:   49 in symmetry 1  ( A  ) - singlet excitation
 -------------------------------------------------------------------

@ Excitation energy :   2.9802743     au
@                       81.097388     eV;   654094.59     cm-1;   7824.7089     kJ / mol

@ Total energy :       -4.9021277     au

@ Operator label: XDIPLEN ; Transition moment : -9.96291002E-17 au
@ Oscillator strength (LENGTH)   :  1.97213840E-32  (X-polarization)

@ Operator label: YDIPLEN ; Transition moment : -2.12787963E-04 au
@ Oscillator strength (LENGTH)   :  8.99619974E-08  (Y-polarization)

@ Operator label: ZDIPLEN ; Transition moment :  1.30374312E-04 au
@ Oscillator strength (LENGTH)   :  3.37713974E-08  (Z-polarization)
@ Total oscillator strength (LENGTH)   :  1.23733395E-07

 Eigenvector for state no. 49

      Index(conf)                         Z operator          Y operator
      ----------                      --------------      --------------
          37                           -0.3758995329        0.0000000000
          39                           -0.3930796986        0.0000000000
          90                           -0.5632846591        0.0000000000
          96                           -0.5890291011        0.0000000000

      101 elements with absolute value ≤ 1.00D-01 are not printed.

 Printout of coefficients in interval  3.1623E-01 to  1.0000E+00
 ===============================================================

  Coefficient of CSF no.        37 is     -0.37589953   -3.75899533E-01
  Orbital          3   1   4
  Spin coupling    2   1  -1

  Coefficient of CSF no.        39 is     -0.39307970   -3.93079699E-01
  Orbital          3   1   5
  Spin coupling    2   1  -1

  Coefficient of CSF no.        90 is     -0.56328466   -5.63284659E-01
  Orbital          1   3   4   6
  Spin coupling    1   1  -1  -1

  Coefficient of CSF no.        96 is     -0.58902910   -5.89029101E-01
  Orbital          1   3   5   6
  Spin coupling    1   1  -1  -1

 Printout of coefficients in interval  1.0000E-01 to  3.1623E-01
 ===============================================================
   ( no coefficients )

 Norm of printed CI vector ..      0.96005700

 Magnitude of CI coefficients
 ============================
 ( Ranges are relative to norm of vector :  1.00E+00 )

  10- 1 to 10- 0         4    0.96005700E+00      0.9600569974
  10- 2 to 10- 1        18    0.39579506E-01      0.9996365036
  10- 3 to 10- 2        19    0.36051810E-03      0.9999970217
  10- 4 to 10- 3         7    0.29782902E-05      1.0000000000
  Number of coefficients less than 10^-11 times norm is           57


 @ Excited state no:   50 in symmetry 1  ( A  ) - singlet excitation
 -------------------------------------------------------------------

@ Excitation energy :   3.0139504     au
@                       82.013761     eV;   661485.64     cm-1;   7913.1254     kJ / mol

@ Total energy :       -4.8684516     au

@ Operator label: XDIPLEN ; Transition moment : -1.02837527E-03 au
@ Oscillator strength (LENGTH)   :  2.12494692E-06  (X-polarization)

@ Operator label: YDIPLEN ; Transition moment : -8.22964481E-12 au
@ Oscillator strength (LENGTH)   :  1.36083985E-22  (Y-polarization)

@ Operator label: ZDIPLEN ; Transition moment :  1.47477505E-11 au
@ Oscillator strength (LENGTH)   :  4.37015054E-22  (Z-polarization)
@ Total oscillator strength (LENGTH)   :  2.12494692E-06

 Eigenvector for state no. 50

      Index(conf)                         Z operator          Y operator
      ----------                      --------------      --------------
          36                            0.1480589443        0.0000000000
          42                           -0.5645288892        0.0000000000
          47                            0.1883934286        0.0000000000
          52                           -0.5231705946        0.0000000000
          57                            0.1883934290        0.0000000000
          62                           -0.5231705942        0.0000000000

       99 elements with absolute value ≤ 1.00D-01 are not printed.

 Printout of coefficients in interval  3.1623E-01 to  1.0000E+00
 ===============================================================

  Coefficient of CSF no.        42 is     -0.56452889   -5.64528889E-01
  Orbital          3   1   6
  Spin coupling    2   1  -1

  Coefficient of CSF no.        52 is     -0.52317059   -5.23170595E-01
  Orbital          4   1   6
  Spin coupling    2   1  -1

  Coefficient of CSF no.        62 is     -0.52317059   -5.23170594E-01
  Orbital          5   1   6
  Spin coupling    2   1  -1

 Printout of coefficients in interval  1.0000E-01 to  3.1623E-01
 ===============================================================

  Coefficient of CSF no.        36 is      0.14805894    1.48058944E-01
  Orbital          3   1   2
  Spin coupling    2   1  -1

  Coefficient of CSF no.        47 is      0.18839343    1.88393429E-01
  Orbital          4   1   3
  Spin coupling    2   1  -1

  Coefficient of CSF no.        57 is      0.18839343    1.88393429E-01
  Orbital          5   1   3
  Spin coupling    2   1  -1

 Norm of printed CI vector ..      0.95901343

 Magnitude of CI coefficients
 ============================
 ( Ranges are relative to norm of vector :  1.00E+00 )

  10- 1 to 10- 0         6    0.95901343E+00      0.9590134273
  10- 2 to 10- 1        18    0.40780491E-01      0.9997939182
  10- 3 to 10- 2        16    0.20591231E-03      0.9999998305
  10- 4 to 10- 3         1    0.16950219E-06      1.0000000000
  10- 8 to 10- 7         2    0.18110472E-14      1.0000000000
  10- 9 to 10- 8        23    0.37377461E-15      1.0000000000
  10-10 to 10- 9        18    0.66097358E-17      1.0000000000
  10-11 to 10-10         4    0.31651403E-20      1.0000000000
  Number of coefficients less than 10^-11 times norm is           17


 Time used in polarization propagator calculation is      1.24 CPU seconds for symmetry 1

  Total CPU  time used in RESPONSE:   1.42 seconds
  Total wall time used in RESPONSE:   0.72 seconds


                   .-------------------------------------------.
                   | End of Dynamic Property Section (RESPONS) |
                   `-------------------------------------------'

  Total CPU  time used in DALTON:   1.51 seconds
  Total wall time used in DALTON:   2.29 seconds

 NOTE:    1 warnings have been issued.
 Check output, result, and error files for "WARNING".

 
     Date and time (Linux)  : Fri Jul  3 12:25:20 2026
     Host name              : n-62-28-31                              
