#INFO: **** input file is /home/johnnygriffiths/DTU_codebase/Masters_Project/CASCI pySCF/lih_46_sto3g.py ****
import numpy as np
from pyscf import gto, scf, mcscf, fci, ao2mo
from pyscf.fci import addons

# Build molecule (use a reasonable bond length, e.g. 1.6 Å)
mol = gto.M(
    atom = 'Li 0 0 0; H 0 0 1.595',
    basis = 'sto-3g',
    spin = 0,   # singlet reference
    verbose=4,
    charge = 0
)

# RHF calculation
mf = scf.RHF(mol)
mf.kernel()

# CASCI: 4 electrons in 6 orbitals
# select active pace (li has 4e), then selects certain number orbitals, some ooccu, some virtual
# then within this set it does FCI (here sto-3g does fci anyway)
ncas = 6
nelecas = 4

mc = mcscf.CASCI(mf, ncas, nelecas)

# Request multiple states (e.g. first 10 singlets)
# 105 is maximum number of states inclusive ground state
nroots = 400

# Enforce singlet states using spin-adapted FCI solver
solver = fci.direct_spin1.FCI(mol)
#solver = fci.addons.fix_spin_(solver, ss=0.0, shift=2.0)
solver.spin = 0  # target S=0
solver.nroots = nroots

mc.fcisolver = solver

# Run CASCI
mc.kernel()

# Extract energies
energies = mc.e_tot  # ground and excited states

# Convert to excitation energies (relative to ground state)
E0 = energies[0]
excitation_au = energies - E0

# Convert to eV
hartree_to_ev = 27.211386246
excitation_ev = excitation_au * hartree_to_ev

print("State   Energy (Ha)   Excitation (eV)")
for i, (E, dE) in enumerate(zip(energies, excitation_ev)):
    print(f"{i:2d}   {E:12.8f}   {dE:10.6f}")



# AO dipole integrals (x,y,z)
mu_ao = mol.intor('int1e_r', comp=3)

# transform to MO basis
mo = mc.mo_coeff
mu_mo = np.einsum('xij,ip,jq->xpq', mu_ao, mo, mo)


E = mc.e_tot
E0 = E[0]


for i in range(1, len(E)):
    dE = E[i] - E0

    ci0 = mc.ci[0]
    cii = mc.ci[i]

    tdm1 = mc.fcisolver.trans_rdm1(ci0, cii, mc.ncas, mc.nelecas)

    mu_vec = np.einsum('xij,ij->x', mu_mo, tdm1)

    f = (2.0/3.0) * dE * np.dot(mu_vec, mu_vec)

    print(f"State {i}: dE = {dE*hartree_to_ev:.6f} eV, f = {f:.6f}")


#INFO: ******************** input file end ********************


System: uname_result(system='Linux', node='Johnny-LAPTOP-Vivobook', release='6.6.87.2-microsoft-standard-WSL2', version='#1 SMP PREEMPT_DYNAMIC Thu Jun  5 18:30:46 UTC 2025', machine='x86_64')  Threads 16
Python 3.13.14 | packaged by Anaconda, Inc. | (main, Jun 17 2026, 20:12:46) [GCC 14.3.0]
numpy 2.5.0  scipy 1.18.0  h5py 3.16.0
Date: Wed Jul  1 16:55:17 2026
PySCF version 2.13.1
PySCF path  /home/johnnygriffiths/miniconda3/envs/exc-energ/lib/python3.13/site-packages/pyscf

[CONFIG] conf_file None
[INPUT] verbose = 4
[INPUT] num. atoms = 2
[INPUT] num. electrons = 4
[INPUT] charge = 0
[INPUT] spin (= nelec alpha-beta = 2S) = 0
[INPUT] symmetry False subgroup None
[INPUT] Mole.unit = angstrom
[INPUT] Symbol           X                Y                Z      unit          X                Y                Z       unit  Magmom
[INPUT]  1 Li     0.000000000000   0.000000000000   0.000000000000 AA    0.000000000000   0.000000000000   0.000000000000 Bohr   0.0
[INPUT]  2 H      0.000000000000   0.000000000000   1.595000000000 AA    0.000000000000   0.000000000000   3.014113168681 Bohr   0.0

nuclear repulsion = 0.995317638094044
number of shells = 4
number of NR pGTOs = 18
number of NR cGTOs = 6
basis = sto-3g
ecp = {}
CPU time:         2.02


******** <class 'pyscf.scf.hf.RHF'> ********
method = RHF
initial guess = minao
damping factor = 0
level_shift factor = 0
DIIS = <class 'pyscf.scf.diis.CDIIS'>
diis_start_cycle = 1
diis_space = 8
diis_damp = 0
SCF conv_tol = 1e-09
SCF conv_tol_grad = None
SCF max_cycles = 50
direct_scf = True
direct_scf_tol = 1e-13
chkfile to save SCF result = /tmp/tmpa4obm5ca
max_memory 4000 MB (current use 90 MB)
Set gradient conv threshold to 3.16228e-05
Initial guess from minao.
init E= -7.59861814707886
  HOMO = -0.275123438186561  LUMO = 0.0285345804569276
cycle= 1 E= -7.85352253449725  delta_E= -0.255  |g|= 0.104  |ddm|= 1.09
  HOMO = -0.273615612211587  LUMO = 0.0749604236644765
cycle= 2 E= -7.8611545971819  delta_E= -0.00763  |g|= 0.0211  |ddm|= 0.24
  HOMO = -0.28940834474052  LUMO = 0.078649355054199
cycle= 3 E= -7.86186034018345  delta_E= -0.000706  |g|= 0.00782  |ddm|= 0.0669
  HOMO = -0.285668804179591  LUMO = 0.0783552879996464
cycle= 4 E= -7.862023587658  delta_E= -0.000163  |g|= 0.00039  |ddm|= 0.0496
  HOMO = -0.285699905109367  LUMO = 0.0782493136289449
cycle= 5 E= -7.86202385809554  delta_E= -2.7e-07  |g|= 4.02e-05  |ddm|= 0.00218
  HOMO = -0.285696496098172  LUMO = 0.0782606453492728
cycle= 6 E= -7.86202386012544  delta_E= -2.03e-09  |g|= 7.82e-07  |ddm|= 0.000163
  HOMO = -0.285696225759831  LUMO = 0.0782609924171537
cycle= 7 E= -7.86202386012711  delta_E= -1.67e-12  |g|= 9.07e-08  |ddm|= 5.59e-06
  HOMO = -0.285696260154443  LUMO = 0.0782609707415943
Extra cycle  E= -7.86202386012712  delta_E= -8.88e-15  |g|= 2.46e-08  |ddm|= 2.57e-07
converged SCF energy = -7.86202386012712

******** <class 'pyscf.mcscf.casci.CASCI'> ********
CAS (2e+2e, 6o), ncore = 0, nvir = 0
natorb = False
canonicalization = True
sorting_mo_energy = False
max_memory 4000 MB (current use 95 MB)
******** <class 'pyscf.fci.direct_spin1.FCISolver'> ********
max. cycles = 100
conv_tol = 1e-10
davidson only = False
linear dependence = 1e-14
level shift = 0.001
max iter space = 12
max_memory 4000 MB
nroots = 400
pspace_size = 400
spin = 0

WARN: Mulitple states found in CASCI solver. First state is used to compute the Fock matrix and natural orbitals in active space.

Density matrix diagonal elements [1.99990849e+00 1.95176592e+00 1.24019506e-02 1.52459928e-03
 1.52459928e-03 3.28744418e-02]
CASCI converged
CASCI state   0  E = -7.88240193229022  E(CI) = -8.87771957038427  S^2 = 0.0000000
CASCI state   1  E = -7.76641847510761  E(CI) = -8.76173611320165  S^2 = 2.0000000
CASCI state   2  E = -7.74921618650700  E(CI) = -8.74453382460104  S^2 = 0.0000000
CASCI state   3  E = -7.71645401144143  E(CI) = -8.71177164953548  S^2 = 2.0000000
CASCI state   4  E = -7.71645401144142  E(CI) = -8.71177164953547  S^2 = 2.0000000
CASCI state   5  E = -7.69695198775811  E(CI) = -8.69226962585215  S^2 = 0.0000000
CASCI state   6  E = -7.69695198775811  E(CI) = -8.69226962585215  S^2 = 0.0000000
CASCI state   7  E = -7.48261239971336  E(CI) = -8.47793003780741  S^2 = 2.0000000
CASCI state   8  E = -7.31849451954688  E(CI) = -8.31381215764092  S^2 = 0.0000000
CASCI state   9  E = -7.29796692223788  E(CI) = -8.29328456033192  S^2 = 2.0000000
CASCI state  10  E = -7.29796692223787  E(CI) = -8.29328456033192  S^2 = 2.0000000
CASCI state  11  E = -7.24938910403942  E(CI) = -8.24470674213347  S^2 = 2.0000000
CASCI state  12  E = -7.22186373760824  E(CI) = -8.21718137570228  S^2 = 0.0000000
CASCI state  13  E = -7.21523049565573  E(CI) = -8.21054813374977  S^2 = 0.0000000
CASCI state  14  E = -7.21523049565572  E(CI) = -8.21054813374977  S^2 = 0.0000000
CASCI state  15  E = -7.18595385452488  E(CI) = -8.18127149261893  S^2 = 0.0000000
CASCI state  16  E = -7.18595385452488  E(CI) = -8.18127149261892  S^2 = 0.0000000
CASCI state  17  E = -7.13526321448125  E(CI) = -8.13058085257530  S^2 = 2.0000000
CASCI state  18  E = -7.13081987989460  E(CI) = -8.12613751798864  S^2 = 0.0000000
CASCI state  19  E = -7.08664504585332  E(CI) = -8.08196268394736  S^2 = 2.0000000
CASCI state  20  E = -7.08664504585331  E(CI) = -8.08196268394735  S^2 = 2.0000000
CASCI state  21  E = -7.04953784313100  E(CI) = -8.04485548122505  S^2 = 0.0000000
CASCI state  22  E = -7.04953784313100  E(CI) = -8.04485548122505  S^2 = 0.0000000
CASCI state  23  E = -7.00647325395103  E(CI) = -8.00179089204507  S^2 = 0.0000000
CASCI state  24  E = -6.79175104115001  E(CI) = -7.78706867924405  S^2 = 0.0000000
CASCI state  25  E = -5.85426220981311  E(CI) = -6.84957984790715  S^2 = 2.0000000
CASCI state  26  E = -5.82594287787075  E(CI) = -6.82126051596479  S^2 = 0.0000000
CASCI state  27  E = -5.78357625968427  E(CI) = -6.77889389777831  S^2 = 2.0000000
CASCI state  28  E = -5.78357625968426  E(CI) = -6.77889389777831  S^2 = 2.0000000
CASCI state  29  E = -5.75838785304727  E(CI) = -6.75370549114131  S^2 = 0.0000000
CASCI state  30  E = -5.75838785304726  E(CI) = -6.75370549114131  S^2 = 0.0000000
CASCI state  31  E = -5.70349865729405  E(CI) = -6.69881629538809  S^2 = 6.0000000
CASCI state  32  E = -5.70349865729404  E(CI) = -6.69881629538809  S^2 = 6.0000000
CASCI state  33  E = -5.67247039158298  E(CI) = -6.66778802967702  S^2 = 2.0000000
CASCI state  34  E = -5.66080046100332  E(CI) = -6.65611809909737  S^2 = 2.0000000
CASCI state  35  E = -5.66080046100332  E(CI) = -6.65611809909736  S^2 = 2.0000000
CASCI state  36  E = -5.65342699787307  E(CI) = -6.64874463596712  S^2 = 0.0000000
CASCI state  37  E = -5.64943770803132  E(CI) = -6.64475534612536  S^2 = 2.0000000
CASCI state  38  E = -5.64943770803131  E(CI) = -6.64475534612536  S^2 = 2.0000000
CASCI state  39  E = -5.63501806009333  E(CI) = -6.63033569818738  S^2 = 6.0000000
CASCI state  40  E = -5.62697320319554  E(CI) = -6.62229084128958  S^2 = 0.0000000
CASCI state  41  E = -5.62697320319553  E(CI) = -6.62229084128957  S^2 = 0.0000000
CASCI state  42  E = -5.60304840774518  E(CI) = -6.59836604583923  S^2 = 2.0000000
CASCI state  43  E = -5.59131318772039  E(CI) = -6.58663082581443  S^2 = 2.0000000
CASCI state  44  E = -5.58640359307921  E(CI) = -6.58172123117325  S^2 = 2.0000000
CASCI state  45  E = -5.58640359307921  E(CI) = -6.58172123117325  S^2 = 2.0000000
CASCI state  46  E = -5.57818655760870  E(CI) = -6.57350419570274  S^2 = 2.0000000
CASCI state  47  E = -5.57818655760870  E(CI) = -6.57350419570274  S^2 = 2.0000000
CASCI state  48  E = -5.57207345453481  E(CI) = -6.56739109262886  S^2 = 0.0000000
CASCI state  49  E = -5.57182702342564  E(CI) = -6.56714466151968  S^2 = 0.0000000
CASCI state  50  E = -5.57182702342563  E(CI) = -6.56714466151968  S^2 = 0.0000000
CASCI state  51  E = -5.56616176607581  E(CI) = -6.56147940416985  S^2 = 0.0000000
CASCI state  52  E = -5.56616176607581  E(CI) = -6.56147940416985  S^2 = 0.0000000
CASCI state  53  E = -5.51779687934239  E(CI) = -6.51311451743644  S^2 = 2.0000000
CASCI state  54  E = -5.50630386652694  E(CI) = -6.50162150462098  S^2 = 0.0000000
CASCI state  55  E = -5.46656607848162  E(CI) = -6.46188371657566  S^2 = 6.0000000
CASCI state  56  E = -5.42967588934534  E(CI) = -6.42499352743939  S^2 = 2.0000000
CASCI state  57  E = -5.40993174774268  E(CI) = -6.40524938583673  S^2 = 0.0000000
CASCI state  58  E = -5.40824348166227  E(CI) = -6.40356111975631  S^2 = 2.0000000
CASCI state  59  E = -5.39457439389051  E(CI) = -6.38989203198455  S^2 = 6.0000000
CASCI state  60  E = -5.39457439389050  E(CI) = -6.38989203198455  S^2 = 6.0000000
CASCI state  61  E = -5.36200876632181  E(CI) = -6.35732640441585  S^2 = 2.0000000
CASCI state  62  E = -5.36200876632180  E(CI) = -6.35732640441585  S^2 = 2.0000000
CASCI state  63  E = -5.34445670450579  E(CI) = -6.33977434259983  S^2 = 2.0000000
CASCI state  64  E = -5.33357212246705  E(CI) = -6.32888976056110  S^2 = 0.0000000
CASCI state  65  E = -5.33117888330444  E(CI) = -6.32649652139848  S^2 = 2.0000000
CASCI state  66  E = -5.33117888330444  E(CI) = -6.32649652139848  S^2 = 2.0000000
CASCI state  67  E = -5.31665505307545  E(CI) = -6.31197269116950  S^2 = 0.0000000
CASCI state  68  E = -5.31665505307545  E(CI) = -6.31197269116949  S^2 = 0.0000000
CASCI state  69  E = -5.27190163975014  E(CI) = -6.26721927784418  S^2 = 6.0000000
CASCI state  70  E = -5.22435666695687  E(CI) = -6.21967430505091  S^2 = 2.0000000
CASCI state  71  E = -5.22200985222490  E(CI) = -6.21732749031894  S^2 = 2.0000000
CASCI state  72  E = -5.22200985222490  E(CI) = -6.21732749031894  S^2 = 2.0000000
CASCI state  73  E = -5.21248516040978  E(CI) = -6.20780279850382  S^2 = 2.0000000
CASCI state  74  E = -5.20431325500170  E(CI) = -6.19963089309574  S^2 = 0.0000000
CASCI state  75  E = -5.20431325500170  E(CI) = -6.19963089309574  S^2 = 0.0000000
CASCI state  76  E = -5.18335051540818  E(CI) = -6.17866815350223  S^2 = 0.0000000
CASCI state  77  E = -5.17498459518957  E(CI) = -6.17030223328362  S^2 = 2.0000000
CASCI state  78  E = -5.17498459518957  E(CI) = -6.17030223328362  S^2 = 2.0000000
CASCI state  79  E = -5.13777761973379  E(CI) = -6.13309525782784  S^2 = 0.0000000
CASCI state  80  E = -5.13777761973379  E(CI) = -6.13309525782783  S^2 = 0.0000000
CASCI state  81  E = -5.12787086295008  E(CI) = -6.12318850104413  S^2 = 2.0000000
CASCI state  82  E = -5.12571168154354  E(CI) = -6.12102931963758  S^2 = 2.0000000
CASCI state  83  E = -5.12571168154354  E(CI) = -6.12102931963758  S^2 = 2.0000000
CASCI state  84  E = -5.10864778493127  E(CI) = -6.10396542302532  S^2 = 6.0000000
CASCI state  85  E = -5.10864778493126  E(CI) = -6.10396542302531  S^2 = 6.0000000
CASCI state  86  E = -5.10377692874322  E(CI) = -6.09909456683727  S^2 = 0.0000000
CASCI state  87  E = -5.10377692874322  E(CI) = -6.09909456683726  S^2 = 0.0000000
CASCI state  88  E = -5.09296407344650  E(CI) = -6.08828171154054  S^2 = 2.0000000
CASCI state  89  E = -5.09211233696155  E(CI) = -6.08742997505560  S^2 = 0.0000000
CASCI state  90  E = -5.08869010724255  E(CI) = -6.08400774533659  S^2 = 2.0000000
CASCI state  91  E = -5.08869010724255  E(CI) = -6.08400774533659  S^2 = 2.0000000
CASCI state  92  E = -5.08182034684955  E(CI) = -6.07713798494359  S^2 = 0.0000000
CASCI state  93  E = -5.07091037042533  E(CI) = -6.06622800851937  S^2 = 0.0000000
CASCI state  94  E = -5.07091037042532  E(CI) = -6.06622800851937  S^2 = 0.0000000
CASCI state  95  E = -5.05846791775841  E(CI) = -6.05378555585246  S^2 = 2.0000000
CASCI state  96  E = -5.05846791775841  E(CI) = -6.05378555585246  S^2 = 2.0000000
CASCI state  97  E = -5.03510325788357  E(CI) = -6.03042089597761  S^2 = 6.0000000
CASCI state  98  E = -5.03376514456039  E(CI) = -6.02908278265443  S^2 = 2.0000000
CASCI state  99  E = -5.00477613814475  E(CI) = -6.00009377623880  S^2 = 0.0000000
CASCI state 100  E = -5.00007264540191  E(CI) = -5.99539028349595  S^2 = 2.0000000
CASCI state 101  E = -4.99133176311480  E(CI) = -5.98664940120884  S^2 = 2.0000000
CASCI state 102  E = -4.99133176311479  E(CI) = -5.98664940120884  S^2 = 2.0000000
CASCI state 103  E = -4.97615916990914  E(CI) = -5.97147680800319  S^2 = 2.0000000
CASCI state 104  E = -4.97615916990914  E(CI) = -5.97147680800318  S^2 = 2.0000000
CASCI state 105  E = -4.96984119040225  E(CI) = -5.96515882849629  S^2 = 2.0000000
CASCI state 106  E = -4.95971989044606  E(CI) = -5.95503752854010  S^2 = 0.0000000
CASCI state 107  E = -4.95971989044605  E(CI) = -5.95503752854010  S^2 = 0.0000000
CASCI state 108  E = -4.95716294951214  E(CI) = -5.95248058760618  S^2 = 0.0000000
CASCI state 109  E = -4.95716294951214  E(CI) = -5.95248058760618  S^2 = 0.0000000
CASCI state 110  E = -4.95417325648581  E(CI) = -5.94949089457986  S^2 = 0.0000000
CASCI state 111  E = -4.91645807519142  E(CI) = -5.91177571328547  S^2 = 2.0000000
CASCI state 112  E = -4.91645807519142  E(CI) = -5.91177571328546  S^2 = 2.0000000
CASCI state 113  E = -4.90212765593676  E(CI) = -5.89744529403081  S^2 = 0.0000000
CASCI state 114  E = -4.90212765593676  E(CI) = -5.89744529403080  S^2 = 0.0000000
CASCI state 115  E = -4.88981166546379  E(CI) = -5.88512930355784  S^2 = 2.0000000
CASCI state 116  E = -4.86845157766312  E(CI) = -5.86376921575716  S^2 = 0.0000000
CASCI state 117  E = -4.77173582308379  E(CI) = -5.76705346117783  S^2 = 2.0000000
CASCI state 118  E = -4.73848229281616  E(CI) = -5.73379993091020  S^2 = 0.0000000
CASCI state 119  E = -4.72514505193400  E(CI) = -5.72046269002805  S^2 = 2.0000000
CASCI state 120  E = -4.70067236654137  E(CI) = -5.69599000463541  S^2 = 0.0000000
CASCI state 121  E = -4.67549891542027  E(CI) = -5.67081655351431  S^2 = 2.0000000
CASCI state 122  E = -4.67549891542027  E(CI) = -5.67081655351431  S^2 = 2.0000000
CASCI state 123  E = -4.65908010765600  E(CI) = -5.65439774575004  S^2 = 0.0000000
CASCI state 124  E = -4.65908010765600  E(CI) = -5.65439774575004  S^2 = 0.0000000
CASCI state 125  E = -2.59208042176761  E(CI) = -3.58739805986166  S^2 = 2.0000000
CASCI state 126  E = -2.59208042176761  E(CI) = -3.58739805986165  S^2 = 2.0000000
CASCI state 127  E = -2.58349055497628  E(CI) = -3.57880819307032  S^2 = 0.0000000
CASCI state 128  E = -2.52409337263907  E(CI) = -3.51941101073311  S^2 = 2.0000000
CASCI state 129  E = -2.52312425842124  E(CI) = -3.51844189651528  S^2 = 0.0000000
CASCI state 130  E = -2.52312425842123  E(CI) = -3.51844189651528  S^2 = 0.0000000
CASCI state 131  E = -2.47172171260146  E(CI) = -3.46703935069551  S^2 = 0.0000000
CASCI state 132  E = -2.47172171260146  E(CI) = -3.46703935069550  S^2 = 0.0000000
CASCI state 133  E = -2.45715243569429  E(CI) = -3.45247007378834  S^2 = 6.0000000
CASCI state 134  E = -2.42564841714291  E(CI) = -3.42096605523696  S^2 = 0.0000000
CASCI state 135  E = -2.39131599802123  E(CI) = -3.38663363611527  S^2 = 2.0000000
CASCI state 136  E = -2.39131599802123  E(CI) = -3.38663363611527  S^2 = 2.0000000
CASCI state 137  E = -2.38378268677901  E(CI) = -3.37910032487305  S^2 = 2.0000000
CASCI state 138  E = -2.35949016631556  E(CI) = -3.35480780440961  S^2 = 2.0000000
CASCI state 139  E = -2.35949016631556  E(CI) = -3.35480780440960  S^2 = 2.0000000
CASCI state 140  E = -2.34173258726289  E(CI) = -3.33705022535694  S^2 = 2.0000000
CASCI state 141  E = -2.33923804457759  E(CI) = -3.33455568267164  S^2 = 0.0000000
CASCI state 142  E = -2.33923804457759  E(CI) = -3.33455568267164  S^2 = 0.0000000
CASCI state 143  E = -2.33615919585824  E(CI) = -3.33147683395229  S^2 = 0.0000000
CASCI state 144  E = -2.33615919585824  E(CI) = -3.33147683395229  S^2 = 0.0000000
CASCI state 145  E = -2.30929360652239  E(CI) = -3.30461124461644  S^2 = 2.0000000
CASCI state 146  E = -2.30462181155463  E(CI) = -3.29993944964867  S^2 = 0.0000000
CASCI state 147  E = -2.27630266083109  E(CI) = -3.27162029892514  S^2 = 2.0000000
CASCI state 148  E = -2.27630266083109  E(CI) = -3.27162029892513  S^2 = 2.0000000
CASCI state 149  E = -2.27435127927633  E(CI) = -3.26966891737037  S^2 = 0.0000000
CASCI state 150  E = -2.24482898633367  E(CI) = -3.24014662442772  S^2 = 0.0000000
CASCI state 151  E = -2.24482898633367  E(CI) = -3.24014662442771  S^2 = 0.0000000
CASCI state 152  E = -2.22067160081133  E(CI) = -3.21598923890537  S^2 = 2.0000000
CASCI state 153  E = -2.21180538756729  E(CI) = -3.20712302566134  S^2 = 6.0000000
CASCI state 154  E = -2.21180538756729  E(CI) = -3.20712302566134  S^2 = 6.0000000
CASCI state 155  E = -2.16275520896394  E(CI) = -3.15807284705798  S^2 = 2.0000000
CASCI state 156  E = -2.16275520896394  E(CI) = -3.15807284705798  S^2 = 2.0000000
CASCI state 157  E = -2.15893121965547  E(CI) = -3.15424885774952  S^2 = 0.0000000
CASCI state 158  E = -2.13935375518749  E(CI) = -3.13467139328153  S^2 = 0.0000000
CASCI state 159  E = -2.13935375518748  E(CI) = -3.13467139328153  S^2 = 0.0000000
CASCI state 160  E = -2.12972813523713  E(CI) = -3.12504577333118  S^2 = 6.0000000
CASCI state 161  E = -2.12786312998517  E(CI) = -3.12318076807922  S^2 = 2.0000000
CASCI state 162  E = -2.08096835824020  E(CI) = -3.07628599633425  S^2 = 2.0000000
CASCI state 163  E = -2.08096835824020  E(CI) = -3.07628599633425  S^2 = 2.0000000
CASCI state 164  E = -2.06286170319656  E(CI) = -3.05817934129061  S^2 = 2.0000000
CASCI state 165  E = -2.06286170319656  E(CI) = -3.05817934129061  S^2 = 2.0000000
CASCI state 166  E = -2.05767333564459  E(CI) = -3.05299097373864  S^2 = 2.0000000
CASCI state 167  E = -2.05767333564459  E(CI) = -3.05299097373864  S^2 = 2.0000000
CASCI state 168  E = -2.05245667867578  E(CI) = -3.04777431676983  S^2 = 2.0000000
CASCI state 169  E = -2.03498237484180  E(CI) = -3.03030001293585  S^2 = 0.0000000
CASCI state 170  E = -2.03498237484180  E(CI) = -3.03030001293585  S^2 = 0.0000000
CASCI state 171  E = -2.01361977503666  E(CI) = -3.00893741313070  S^2 = 0.0000000
CASCI state 172  E = -1.99361842231373  E(CI) = -2.98893606040777  S^2 = 2.0000000
CASCI state 173  E = -1.95919798710867  E(CI) = -2.95451562520271  S^2 = 2.0000000
CASCI state 174  E = -1.95919798710867  E(CI) = -2.95451562520271  S^2 = 2.0000000
CASCI state 175  E = -1.95735438032663  E(CI) = -2.95267201842067  S^2 = 0.0000000
CASCI state 176  E = -1.93926489202840  E(CI) = -2.93458253012244  S^2 = 2.0000000
CASCI state 177  E = -1.91258956700433  E(CI) = -2.90790720509837  S^2 = 2.0000000
CASCI state 178  E = -1.91258956700432  E(CI) = -2.90790720509837  S^2 = 2.0000000
CASCI state 179  E = -1.90986815627279  E(CI) = -2.90518579436684  S^2 = 0.0000000
CASCI state 180  E = -1.90986815627279  E(CI) = -2.90518579436684  S^2 = 0.0000000
CASCI state 181  E = -1.89651670776455  E(CI) = -2.89183434585860  S^2 = 0.0000000
CASCI state 182  E = -1.88637388497215  E(CI) = -2.88169152306620  S^2 = 0.0000000
CASCI state 183  E = -1.88637388497215  E(CI) = -2.88169152306620  S^2 = 0.0000000
CASCI state 184  E = -1.88417502337112  E(CI) = -2.87949266146517  S^2 = 6.0000000
CASCI state 185  E = -1.87356135017756  E(CI) = -2.86887898827160  S^2 = 2.0000000
CASCI state 186  E = -1.82266278160736  E(CI) = -2.81798041970140  S^2 = 0.0000000
CASCI state 187  E = -1.82266278160736  E(CI) = -2.81798041970140  S^2 = 0.0000000
CASCI state 188  E = -1.81524188882327  E(CI) = -2.81055952691732  S^2 = 0.0000000
CASCI state 189  E = -1.81524188882327  E(CI) = -2.81055952691731  S^2 = 0.0000000
CASCI state 190  E = -1.79098598477480  E(CI) = -2.78630362286884  S^2 = 0.0000000
CASCI state 191  E = -1.78137711538102  E(CI) = -2.77669475347506  S^2 = 2.0000000
CASCI state 192  E = -1.78137711538102  E(CI) = -2.77669475347506  S^2 = 2.0000000
CASCI state 193  E = -1.77522064577412  E(CI) = -2.77053828386817  S^2 = 2.0000000
CASCI state 194  E = -1.77522064577412  E(CI) = -2.77053828386817  S^2 = 2.0000000
CASCI state 195  E = -1.76105971993663  E(CI) = -2.75637735803067  S^2 = 0.0000000
CASCI state 196  E = -1.74540496566226  E(CI) = -2.74072260375630  S^2 = 2.0000000
CASCI state 197  E = -1.74238769856411  E(CI) = -2.73770533665815  S^2 = 2.0000000
CASCI state 198  E = -1.71052762285267  E(CI) = -2.70584526094672  S^2 = 0.0000000
CASCI state 199  E = -1.71052762285267  E(CI) = -2.70584526094672  S^2 = 0.0000000
CASCI state 200  E = -1.67993341156264  E(CI) = -2.67525104965669  S^2 = 2.0000000
CASCI state 201  E = -1.67993341156264  E(CI) = -2.67525104965668  S^2 = 2.0000000
CASCI state 202  E = -1.66870662639628  E(CI) = -2.66402426449032  S^2 = 0.0000000
CASCI state 203  E = -1.66740277374669  E(CI) = -2.66272041184073  S^2 = 2.0000000
CASCI state 204  E = -1.65227506587044  E(CI) = -2.64759270396448  S^2 = 0.0000000
CASCI state 205  E = -1.65227506587043  E(CI) = -2.64759270396448  S^2 = 0.0000000
CASCI state 206  E = -1.63507371362256  E(CI) = -2.63039135171661  S^2 = 0.0000000
CASCI state 207  E = -1.63507371362256  E(CI) = -2.63039135171660  S^2 = 0.0000000
CASCI state 208  E = -1.61033251357372  E(CI) = -2.60565015166776  S^2 = 0.0000000
CASCI state 209  E = -1.55316437507964  E(CI) = -2.54848201317368  S^2 = 0.0000000
CASCI state 210  E = -1.54132157692987  E(CI) = -2.53663921502391  S^2 = 2.0000000
CASCI state 211  E = -1.49012241982368  E(CI) = -2.48544005791772  S^2 = 2.0000000
CASCI state 212  E = -1.49012241982367  E(CI) = -2.48544005791772  S^2 = 2.0000000
CASCI state 213  E = -1.42102654890186  E(CI) = -2.41634418699591  S^2 = 0.0000000
CASCI state 214  E = -1.41820557882587  E(CI) = -2.41352321691992  S^2 = 2.0000000
CASCI state 215  E = -1.41820557882587  E(CI) = -2.41352321691992  S^2 = 2.0000000
CASCI state 216  E = -1.38102642984297  E(CI) = -2.37634406793701  S^2 = 2.0000000
CASCI state 217  E = -1.37874906461948  E(CI) = -2.37406670271352  S^2 = 0.0000000
CASCI state 218  E = -1.37874906461948  E(CI) = -2.37406670271352  S^2 = 0.0000000
CASCI state 219  E = -1.36788457942622  E(CI) = -2.36320221752027  S^2 = 0.0000000
CASCI state 220  E = -1.36788457942622  E(CI) = -2.36320221752026  S^2 = 0.0000000
CASCI state 221  E = -1.35032955483072  E(CI) = -2.34564719292477  S^2 = 0.0000000
CASCI state 222  E = -1.35032955483072  E(CI) = -2.34564719292476  S^2 = 0.0000000
CASCI state 223  E = -1.34723167151467  E(CI) = -2.34254930960872  S^2 = 0.0000000
CASCI state 224  E = -1.26303839283555  E(CI) = -2.25835603092960  S^2 = 0.0000000
State   Energy (Ha)   Excitation (eV)
 0    -7.88240193     0.000000
 1    -7.76641848     3.156071
 2    -7.74921619     3.624169
 3    -7.71645401     4.515673
 4    -7.71645401     4.515673
 5    -7.69695199     5.046350
 6    -7.69695199     5.046350
 7    -7.48261240    10.878827
 8    -7.31849452    15.344702
 9    -7.29796692    15.903287
10    -7.29796692    15.903287
11    -7.24938910    17.225157
12    -7.22186374    17.974160
13    -7.21523050    18.154660
14    -7.21523050    18.154660
15    -7.18595385    18.951318
16    -7.18595385    18.951318
17    -7.13526321    20.330680
18    -7.13081988    20.451590
19    -7.08664505    21.653648
20    -7.08664505    21.653648
21    -7.04953784    22.663386
22    -7.04953784    22.663386
23    -7.00647325    23.835234
24    -6.79175104    29.678123
25    -5.85426221    55.188493
26    -5.82594288    55.959102
27    -5.78357626    57.111956
28    -5.78357626    57.111956
29    -5.75838785    57.797368
30    -5.75838785    57.797368
31    -5.70349866    59.290979
32    -5.70349866    59.290979
33    -5.67247039    60.135301
34    -5.66080046    60.452856
35    -5.66080046    60.452856
36    -5.65342700    60.653498
37    -5.64943771    60.762052
38    -5.64943771    60.762052
39    -5.63501806    61.154431
40    -5.62697320    61.373342
41    -5.62697320    61.373342
42    -5.60304841    62.024369
43    -5.59131319    62.343701
44    -5.58640359    62.477298
45    -5.58640359    62.477298
46    -5.57818656    62.700895
47    -5.57818656    62.700895
48    -5.57207345    62.867241
49    -5.57182702    62.873946
50    -5.57182702    62.873946
51    -5.56616177    63.028106
52    -5.56616177    63.028106
53    -5.51779688    64.344181
54    -5.50630387    64.656922
55    -5.46656608    65.738243
56    -5.42967589    66.742076
57    -5.40993175    67.279341
58    -5.40824348    67.325281
59    -5.39457439    67.697236
60    -5.39457439    67.697236
61    -5.36200877    68.583392
62    -5.36200877    68.583392
63    -5.34445670    69.061008
64    -5.33357212    69.357192
65    -5.33117888    69.422316
66    -5.33117888    69.422316
67    -5.31665505    69.817529
68    -5.31665505    69.817529
69    -5.27190164    71.035332
70    -5.22435667    72.329096
71    -5.22200985    72.392956
72    -5.22200985    72.392956
73    -5.21248516    72.652137
74    -5.20431326    72.874505
75    -5.20431326    72.874505
76    -5.18335052    73.444931
77    -5.17498460    73.672579
78    -5.17498460    73.672579
79    -5.13777762    74.685032
80    -5.13777762    74.685032
81    -5.12787086    74.954609
82    -5.12571168    75.013363
83    -5.12571168    75.013363
84    -5.10864778    75.477695
85    -5.10864778    75.477695
86    -5.10377693    75.610238
87    -5.10377693    75.610238
88    -5.09296407    75.904471
89    -5.09211234    75.927648
90    -5.08869011    76.020772
91    -5.08869011    76.020772
92    -5.08182035    76.207707
93    -5.07091037    76.504583
94    -5.07091037    76.504583
95    -5.05846792    76.843159
96    -5.05846792    76.843159
97    -5.03510326    77.478944
98    -5.03376514    77.515356
99    -5.00477614    78.304187
100    -5.00007265    78.432176
101    -4.99133176    78.670027
102    -4.99133176    78.670027
103    -4.97615917    79.082894
104    -4.97615917    79.082894
105    -4.96984119    79.254815
106    -4.95971989    79.530230
107    -4.95971989    79.530230
108    -4.95716295    79.599808
109    -4.95716295    79.599808
110    -4.95417326    79.681162
111    -4.91645808    80.707444
112    -4.91645808    80.707444
113    -4.90212766    81.097394
114    -4.90212766    81.097394
115    -4.88981167    81.432530
116    -4.86845158    82.013767
117    -4.77173582    84.645537
118    -4.73848229    85.550412
119    -4.72514505    85.913336
120    -4.70067237    86.579272
121    -4.67549892    87.264277
122    -4.67549892    87.264277
123    -4.65908011    87.711055
124    -4.65908011    87.711055
125    -2.59208042   143.956982
126    -2.59208042   143.956982
127    -2.58349055   144.190724
128    -2.52409337   145.807004
129    -2.52312426   145.833375
130    -2.52312426   145.833375
131    -2.47172171   147.232109
132    -2.47172171   147.232109
133    -2.45715244   147.628560
134    -2.42564842   148.485828
135    -2.39131600   149.420060
136    -2.39131600   149.420060
137    -2.38378269   149.625052
138    -2.35949017   150.286085
139    -2.35949017   150.286085
140    -2.34173259   150.769294
141    -2.33923804   150.837174
142    -2.33923804   150.837174
143    -2.33615920   150.920953
144    -2.33615920   150.920953
145    -2.30929361   151.652003
146    -2.30462181   151.779129
147    -2.27630266   152.549733
148    -2.27630266   152.549733
149    -2.27435128   152.602832
150    -2.24482899   153.406175
151    -2.24482899   153.406175
152    -2.22067160   154.063531
153    -2.21180539   154.304793
154    -2.21180539   154.304793
155    -2.16275521   155.639516
156    -2.16275521   155.639516
157    -2.15893122   155.743572
158    -2.13935376   156.276302
159    -2.13935376   156.276302
160    -2.12972814   156.538229
161    -2.12786313   156.588978
162    -2.08096836   157.865050
163    -2.08096836   157.865050
164    -2.06286170   158.357757
165    -2.06286170   158.357757
166    -2.05767334   158.498940
167    -2.05767334   158.498940
168    -2.05245668   158.640892
169    -2.03498237   159.116392
170    -2.03498237   159.116392
171    -2.01361978   159.697698
172    -1.99361842   160.241963
173    -1.95919799   161.178590
174    -1.95919799   161.178590
175    -1.95735438   161.228757
176    -1.93926489   161.720998
177    -1.91258957   162.446870
178    -1.91258957   162.446870
179    -1.90986816   162.520923
180    -1.90986816   162.520923
181    -1.89651671   162.884235
182    -1.88637388   163.160235
183    -1.88637388   163.160235
184    -1.88417502   163.220069
185    -1.87356135   163.508882
186    -1.82266278   164.893903
187    -1.82266278   164.893903
188    -1.81524189   165.095835
189    -1.81524189   165.095835
190    -1.79098598   165.755872
191    -1.78137712   166.017343
192    -1.78137712   166.017343
193    -1.77522065   166.184869
194    -1.77522065   166.184869
195    -1.76105972   166.570207
196    -1.74540497   166.996195
197    -1.74238770   167.078299
198    -1.71052762   167.945256
199    -1.71052762   167.945256
200    -1.67993341   168.777767
201    -1.67993341   168.777767
202    -1.66870663   169.083263
203    -1.66740277   169.118743
204    -1.65227507   169.530389
205    -1.65227507   169.530389
206    -1.63507371   169.998461
207    -1.63507371   169.998461
208    -1.61033251   170.671704
209    -1.55316438   172.227328
210    -1.54132158   172.549587
211    -1.49012242   173.942787
212    -1.49012242   173.942787
213    -1.42102655   175.822981
214    -1.41820558   175.899744
215    -1.41820558   175.899744
216    -1.38102643   176.911440
217    -1.37874906   176.973410
218    -1.37874906   176.973410
219    -1.36788458   177.269048
220    -1.36788458   177.269048
221    -1.35032955   177.746744
222    -1.35032955   177.746744
223    -1.34723167   177.831042
224    -1.26303839   180.122058
State 1: dE = 3.156071 eV, f = 0.000000
State 2: dE = 3.624169 eV, f = 0.047908
State 3: dE = 4.515673 eV, f = 0.000000
State 4: dE = 4.515673 eV, f = 0.000000
State 5: dE = 5.046350 eV, f = 0.249303
State 6: dE = 5.046350 eV, f = 0.249303
State 7: dE = 10.878827 eV, f = 0.000000
State 8: dE = 15.344702 eV, f = 0.076448
State 9: dE = 15.903287 eV, f = 0.000000
State 10: dE = 15.903287 eV, f = 0.000000
State 11: dE = 17.225157 eV, f = 0.000000
State 12: dE = 17.974160 eV, f = 0.209567
State 13: dE = 18.154660 eV, f = 0.000000
State 14: dE = 18.154660 eV, f = 0.000000
State 15: dE = 18.951318 eV, f = 0.007265
State 16: dE = 18.951318 eV, f = 0.007265
State 17: dE = 20.330680 eV, f = 0.000000
State 18: dE = 20.451590 eV, f = 0.002841
State 19: dE = 21.653648 eV, f = 0.000000
State 20: dE = 21.653648 eV, f = 0.000000
State 21: dE = 22.663386 eV, f = 0.003393
State 22: dE = 22.663386 eV, f = 0.003393
State 23: dE = 23.835234 eV, f = 0.001185
State 24: dE = 29.678123 eV, f = 0.006019
State 25: dE = 55.188493 eV, f = 0.000000
State 26: dE = 55.959102 eV, f = 0.061815
State 27: dE = 57.111956 eV, f = 0.000000
State 28: dE = 57.111956 eV, f = 0.000000
State 29: dE = 57.797368 eV, f = 0.127839
State 30: dE = 57.797368 eV, f = 0.127839
State 31: dE = 59.290979 eV, f = 0.000000
State 32: dE = 59.290979 eV, f = 0.000000
State 33: dE = 60.135301 eV, f = 0.000000
State 34: dE = 60.452856 eV, f = 0.000000
State 35: dE = 60.452856 eV, f = 0.000000
State 36: dE = 60.653498 eV, f = 0.004339
State 37: dE = 60.762052 eV, f = 0.000000
State 38: dE = 60.762052 eV, f = 0.000000
State 39: dE = 61.154431 eV, f = 0.000000
State 40: dE = 61.373342 eV, f = 0.001083
State 41: dE = 61.373342 eV, f = 0.001083
State 42: dE = 62.024369 eV, f = 0.000000
State 43: dE = 62.343701 eV, f = 0.000000
State 44: dE = 62.477298 eV, f = 0.000000
State 45: dE = 62.477298 eV, f = 0.000000
State 46: dE = 62.700895 eV, f = 0.000000
State 47: dE = 62.700895 eV, f = 0.000000
State 48: dE = 62.867241 eV, f = 0.000000
State 49: dE = 62.873946 eV, f = 0.000953
State 50: dE = 62.873946 eV, f = 0.000953
State 51: dE = 63.028106 eV, f = 0.000000
State 52: dE = 63.028106 eV, f = 0.000000
State 53: dE = 64.344181 eV, f = 0.000000
State 54: dE = 64.656922 eV, f = 0.003365
State 55: dE = 65.738243 eV, f = 0.000000
State 56: dE = 66.742076 eV, f = 0.000000
State 57: dE = 67.279341 eV, f = 0.022324
State 58: dE = 67.325281 eV, f = 0.000000
State 59: dE = 67.697236 eV, f = 0.000000
State 60: dE = 67.697236 eV, f = 0.000000
State 61: dE = 68.583392 eV, f = 0.000000
State 62: dE = 68.583392 eV, f = 0.000000
State 63: dE = 69.061008 eV, f = 0.000000
State 64: dE = 69.357192 eV, f = 0.017131
State 65: dE = 69.422316 eV, f = 0.000000
State 66: dE = 69.422316 eV, f = 0.000000
State 67: dE = 69.817529 eV, f = 0.000009
State 68: dE = 69.817529 eV, f = 0.000009
State 69: dE = 71.035332 eV, f = 0.000000
State 70: dE = 72.329096 eV, f = 0.000000
State 71: dE = 72.392956 eV, f = 0.000000
State 72: dE = 72.392956 eV, f = 0.000000
State 73: dE = 72.652137 eV, f = 0.000000
State 74: dE = 72.874505 eV, f = 0.000063
State 75: dE = 72.874505 eV, f = 0.000063
State 76: dE = 73.444931 eV, f = 0.000132
State 77: dE = 73.672579 eV, f = 0.000000
State 78: dE = 73.672579 eV, f = 0.000000
State 79: dE = 74.685032 eV, f = 0.000000
State 80: dE = 74.685032 eV, f = 0.000000
State 81: dE = 74.954609 eV, f = 0.000000
State 82: dE = 75.013363 eV, f = 0.000000
State 83: dE = 75.013363 eV, f = 0.000000
State 84: dE = 75.477695 eV, f = 0.000000
State 85: dE = 75.477695 eV, f = 0.000000
State 86: dE = 75.610238 eV, f = 0.000099
State 87: dE = 75.610238 eV, f = 0.000099
State 88: dE = 75.904471 eV, f = 0.000000
State 89: dE = 75.927648 eV, f = 0.000005
State 90: dE = 76.020772 eV, f = 0.000000
State 91: dE = 76.020772 eV, f = 0.000000
State 92: dE = 76.207707 eV, f = 0.000000
State 93: dE = 76.504583 eV, f = 0.000017
State 94: dE = 76.504583 eV, f = 0.000017
State 95: dE = 76.843159 eV, f = 0.000000
State 96: dE = 76.843159 eV, f = 0.000000
State 97: dE = 77.478944 eV, f = 0.000000
State 98: dE = 77.515356 eV, f = 0.000000
State 99: dE = 78.304187 eV, f = 0.000108
State 100: dE = 78.432176 eV, f = 0.000000
State 101: dE = 78.670027 eV, f = 0.000000
State 102: dE = 78.670027 eV, f = 0.000000
State 103: dE = 79.082894 eV, f = 0.000000
State 104: dE = 79.082894 eV, f = 0.000000
State 105: dE = 79.254815 eV, f = 0.000000
State 106: dE = 79.530230 eV, f = 0.000000
State 107: dE = 79.530230 eV, f = 0.000000
State 108: dE = 79.599808 eV, f = 0.000000
State 109: dE = 79.599808 eV, f = 0.000000
State 110: dE = 79.681162 eV, f = 0.000000
State 111: dE = 80.707444 eV, f = 0.000000
State 112: dE = 80.707444 eV, f = 0.000000
State 113: dE = 81.097394 eV, f = 0.000000
State 114: dE = 81.097394 eV, f = 0.000000
State 115: dE = 81.432530 eV, f = 0.000000
State 116: dE = 82.013767 eV, f = 0.000002
State 117: dE = 84.645537 eV, f = 0.000000
State 118: dE = 85.550412 eV, f = 0.001372
State 119: dE = 85.913336 eV, f = 0.000000
State 120: dE = 86.579272 eV, f = 0.000023
State 121: dE = 87.264277 eV, f = 0.000000
State 122: dE = 87.264277 eV, f = 0.000000
State 123: dE = 87.711055 eV, f = 0.000001
State 124: dE = 87.711055 eV, f = 0.000001
State 125: dE = 143.956982 eV, f = 0.000000
State 126: dE = 143.956982 eV, f = 0.000000
State 127: dE = 144.190724 eV, f = 0.000005
State 128: dE = 145.807004 eV, f = 0.000000
State 129: dE = 145.833375 eV, f = 0.000006
State 130: dE = 145.833375 eV, f = 0.000006
State 131: dE = 147.232109 eV, f = 0.000000
State 132: dE = 147.232109 eV, f = 0.000000
State 133: dE = 147.628560 eV, f = 0.000000
State 134: dE = 148.485828 eV, f = 0.000001
State 135: dE = 149.420060 eV, f = 0.000000
State 136: dE = 149.420060 eV, f = 0.000000
State 137: dE = 149.625052 eV, f = 0.000000
State 138: dE = 150.286085 eV, f = 0.000000
State 139: dE = 150.286085 eV, f = 0.000000
State 140: dE = 150.769294 eV, f = 0.000000
State 141: dE = 150.837174 eV, f = 0.000000
State 142: dE = 150.837174 eV, f = 0.000000
State 143: dE = 150.920953 eV, f = 0.000000
State 144: dE = 150.920953 eV, f = 0.000000
State 145: dE = 151.652003 eV, f = 0.000000
State 146: dE = 151.779129 eV, f = 0.000001
State 147: dE = 152.549733 eV, f = 0.000000
State 148: dE = 152.549733 eV, f = 0.000000
State 149: dE = 152.602832 eV, f = 0.000000
State 150: dE = 153.406175 eV, f = 0.000000
State 151: dE = 153.406175 eV, f = 0.000000
State 152: dE = 154.063531 eV, f = 0.000000
State 153: dE = 154.304793 eV, f = 0.000000
State 154: dE = 154.304793 eV, f = 0.000000
State 155: dE = 155.639516 eV, f = 0.000000
State 156: dE = 155.639516 eV, f = 0.000000
State 157: dE = 155.743572 eV, f = 0.000000
State 158: dE = 156.276302 eV, f = 0.000008
State 159: dE = 156.276302 eV, f = 0.000008
State 160: dE = 156.538229 eV, f = 0.000000
State 161: dE = 156.588978 eV, f = 0.000000
State 162: dE = 157.865050 eV, f = 0.000000
State 163: dE = 157.865050 eV, f = 0.000000
State 164: dE = 158.357757 eV, f = 0.000000
State 165: dE = 158.357757 eV, f = 0.000000
State 166: dE = 158.498940 eV, f = 0.000000
State 167: dE = 158.498940 eV, f = 0.000000
State 168: dE = 158.640892 eV, f = 0.000000
State 169: dE = 159.116392 eV, f = 0.000009
State 170: dE = 159.116392 eV, f = 0.000009
State 171: dE = 159.697698 eV, f = 0.000000
State 172: dE = 160.241963 eV, f = 0.000000
State 173: dE = 161.178590 eV, f = 0.000000
State 174: dE = 161.178590 eV, f = 0.000000
State 175: dE = 161.228757 eV, f = 0.000000
State 176: dE = 161.720998 eV, f = 0.000000
State 177: dE = 162.446870 eV, f = 0.000000
State 178: dE = 162.446870 eV, f = 0.000000
State 179: dE = 162.520923 eV, f = 0.000000
State 180: dE = 162.520923 eV, f = 0.000000
State 181: dE = 162.884235 eV, f = 0.000000
State 182: dE = 163.160235 eV, f = 0.000000
State 183: dE = 163.160235 eV, f = 0.000000
State 184: dE = 163.220069 eV, f = 0.000000
State 185: dE = 163.508882 eV, f = 0.000000
State 186: dE = 164.893903 eV, f = 0.000000
State 187: dE = 164.893903 eV, f = 0.000000
State 188: dE = 165.095835 eV, f = 0.000000
State 189: dE = 165.095835 eV, f = 0.000000
State 190: dE = 165.755872 eV, f = 0.000000
State 191: dE = 166.017343 eV, f = 0.000000
State 192: dE = 166.017343 eV, f = 0.000000
State 193: dE = 166.184869 eV, f = 0.000000
State 194: dE = 166.184869 eV, f = 0.000000
State 195: dE = 166.570207 eV, f = 0.000000
State 196: dE = 166.996195 eV, f = 0.000000
State 197: dE = 167.078299 eV, f = 0.000000
State 198: dE = 167.945256 eV, f = 0.000000
State 199: dE = 167.945256 eV, f = 0.000000
State 200: dE = 168.777767 eV, f = 0.000000
State 201: dE = 168.777767 eV, f = 0.000000
State 202: dE = 169.083263 eV, f = 0.000000
State 203: dE = 169.118743 eV, f = 0.000000
State 204: dE = 169.530389 eV, f = 0.000000
State 205: dE = 169.530389 eV, f = 0.000000
State 206: dE = 169.998461 eV, f = 0.000000
State 207: dE = 169.998461 eV, f = 0.000000
State 208: dE = 170.671704 eV, f = 0.000000
State 209: dE = 172.227328 eV, f = 0.000000
State 210: dE = 172.549587 eV, f = 0.000000
State 211: dE = 173.942787 eV, f = 0.000000
State 212: dE = 173.942787 eV, f = 0.000000
State 213: dE = 175.822981 eV, f = 0.000000
State 214: dE = 175.899744 eV, f = 0.000000
State 215: dE = 175.899744 eV, f = 0.000000
State 216: dE = 176.911440 eV, f = 0.000000
State 217: dE = 176.973410 eV, f = 0.000002
State 218: dE = 176.973410 eV, f = 0.000002
State 219: dE = 177.269048 eV, f = 0.000000
State 220: dE = 177.269048 eV, f = 0.000000
State 221: dE = 177.746744 eV, f = 0.000000
State 222: dE = 177.746744 eV, f = 0.000000
State 223: dE = 177.831042 eV, f = 0.000000
State 224: dE = 180.122058 eV, f = 0.000000
