

     ************************************************************************
     *************** Dalton - An Electronic Structure Program ***************
     ************************************************************************

    This is output from DALTON release Dalton2024.0-dev (2024)
         ( Web site: http://daltonprogram.org )

   ----------------------------------------------------------------------------

    NOTE:
     
    Dalton is an experimental code for the evaluation of molecular
    properties using (MC)SCF, DFT, CI, and CC wave functions.
    The authors accept no responsibility for the performance of
    the code or for the correctness of the results.
     
    The code (in whole or part) is provided under a licence and
    is not to be reproduced for further distribution without
    the written permission of the authors or their representatives.
     
    See the home page "http://daltonprogram.org" for further information.
     
    If results obtained with this code are published,
    the appropriate citations would be both of:
     
       K. Aidas, C. Angeli, K. L. Bak, V. Bakken,
       R. Bast, L. Boman, O. Christiansen, R. Cimiraglia,
       S. Coriani, P. Dahle, E. K. Dalskov, U. Ekstroem,
       T. Enevoldsen, J. J. Eriksen, P. Ettenhuber, B. Fernandez,
       L. Ferrighi, H. Fliegl, L. Frediani, K. Hald, A. Halkier,
       C. Haettig, H. Heiberg, T. Helgaker, A. C. Hennum,
       H. Hettema, E. Hjertenaes, S. Hoest, I.-M. Hoeyvik,
       M. F. Iozzi, B. Jansik, H. J. Aa. Jensen, D. Jonsson,
       P. Joergensen, J. Kauczor, S. Kirpekar,
       T. Kjaergaard, W. Klopper, S. Knecht, R. Kobayashi, H. Koch,
       J. Kongsted, A. Krapp, K. Kristensen, A. Ligabue,
       O. B. Lutnaes, J. I. Melo, K. V. Mikkelsen, R. H. Myhre,
       C. Neiss, C. B. Nielsen, P. Norman, J. Olsen,
       J. M. H. Olsen, A. Osted, M. J. Packer, F. Pawlowski,
       T. B. Pedersen, P. F. Provasi, S. Reine, Z. Rinkevicius,
       T. A. Ruden, K. Ruud, V. Rybkin, P. Salek, C. C. M. Samson,
       A. Sanchez de Meras, T. Saue, S. P. A. Sauer,
       B. Schimmelpfennig, K. Sneskov, A. H. Steindal,
       K. O. Sylvester-Hvid, P. R. Taylor, A. M. Teale,
       E. I. Tellgren, D. P. Tew, A. J. Thorvaldsen, L. Thoegersen,
       O. Vahtras, M. A. Watson, D. J. D. Wilson, M. Ziolkowski
       and H. Agren,
       "The Dalton quantum chemistry program system",
       WIREs Comput. Mol. Sci. 2014, 4:269-284 (doi: 10.1002/wcms.1172)
     
    and
     
       Dalton, a molecular electronic structure program,
       Release Dalton2024.0-dev (2024), see http://daltonprogram.org
   ----------------------------------------------------------------------------

    Authors in alphabetical order (Major contribution(s) in parenthesis):

  Kestutis Aidas,              Vilnius University,        Lithuania   (QM/MM)
  Celestino Angeli,            University of Ferrara,     Italy       (NEVPT2)
  Juan J. Aucar,               Northeast National UniversiArgentina   (LRESC, Relativistic Effects on EFG)
  Keld L. Bak,                 UNI-C,                     Denmark     (AOSOPPA, non-adiabatic coupling, magnetic properties)
  Vebjoern Bakken,             University of Oslo,        Norway      (DALTON; geometry optimizer, symmetry detection)
  Radovan Bast,                UiT The Arctic U. of NorwayNorway      (DALTON installation and execution frameworks)
  Pablo Baudin,                University of Valencia,    Spain       (Cholesky excitation energies)
  Linus Boman,                 NTNU,                      Norway      (Cholesky decomposition and subsystems)
  Bruno N. Cabral Tenorio,     Technical Univ. of Denmark,Denmark     (Lanczos-based CC methods)
  Ove Christiansen,            Aarhus University,         Denmark     (CC module)
  Renzo Cimiraglia,            University of Ferrara,     Italy       (NEVPT2)
  Sonia Coriani,               Technical Univ. of Denmark,Denmark     (CC and RESPONS modules)
  Janusz Cukras,               University of Warsaw,      Poland      (MChD in RESPONS)
  Paal Dahle,                  University of Oslo,        Norway      (Parallelization)
  Erik K. Dalskov,             UNI-C,                     Denmark     (SOPPA)
  Thomas Enevoldsen,           Univ. of Southern Denmark, Denmark     (SOPPA)
  Janus J. Eriksen,            Aarhus University,         Denmark     (Polarizable embedding, TDA)
  Rasmus Faber,                Technical Univ. of Denmark,Denmark     (Vib.avg. NMR w. SOPPA, parallel AO-SOPPA, CVS-CC and EOMCC)
  Tobias Fahleson,             KTH Stockholm,             Sweden      (Damped cubic response)
  Berta Fernandez,             U. of Santiago de CompostelSpain       (Doublet spin, ESR in RESPONS)
  Lara Ferrighi,               Aarhus University,         Denmark     (PCM Cubic response)
  Heike Fliegl,                University of Oslo,        Norway      (CCSD(R12))
  Luca Frediani,               UiT The Arctic U. of NorwayNorway      (PCM)
  Emmanuel Fromager,           Univ. Strasbourg,          France      (MC-srDFT)
  Bin Gao,                     UiT The Arctic U. of NorwayNorway      (Gen1Int library)
  Andre S. P. Gomes,           CNRS/Universite de Lille,  France      (Frozen density embedding)
  Christof Haettig,            Ruhr-University Bochum,    Germany     (CC module)
  Kasper Hald,                 Aarhus University,         Denmark     (CC module)
  Asger Halkier,               Aarhus University,         Denmark     (CC module)
  Frederik Beyer Hansen,       University of Copenhagen,  Denmark     (Parallel AO-SOPPA)
  Erik D. Hedegaard,           Univ. of Southern Denmark, Denmark     (Polarizable embedding, QM/MM, and MC-srDFT)
  Hanne Heiberg,               University of Oslo,        Norway      (Geometry analysis, selected one-electron integrals)
  Trygve Helgaker,             University of Oslo,        Norway      (DALTON; ABACUS, ERI, DFT modules, London, and much more)
  Alf Christian Hennum,        University of Oslo,        Norway      (Parity violation)
  Hinne Hettema,               University of Auckland,    New Zealand (Quadratic response in RESPONS; SIRIUS supersymmetry)
  Andreas E. Hillers-Bendtsen, University of Copenhagen,  Denmark     (MP3)
  Eirik Hjertenaes,            NTNU,                      Norway      (Cholesky decomposition)
  Nicolai Machholdt Hoeyer,    Aarhus University,         Denmark     (MP3)
  Pi A. B. Haase,              University of Copenhagen,  Denmark     (Triplet AO-SOPPA)
  Maria Francesca Iozzi,       University of Oslo,        Norway      (RPA)
  Christoph Jacob,             TU Braunschweig            Germany     (Frozen density embedding)
  Brano Jansik,                Technical Univ. of Ostrava Czech Rep.  (DFT cubic response)
  Hans Joergen Aa. Jensen,     Univ. of Southern Denmark, Denmark     (DALTON; SIRIUS, RESPONS, ABACUS, MC-srDFT, and much more)
  Dan Jonsson,                 UiT The Arctic U. of NorwayNorway      (Cubic response in RESPONS module)
  Poul Joergensen,             Aarhus University,         Denmark     (RESPONS, ABACUS, and CC modules)
  Maciej Kaminski,             University of Warsaw,      Poland      (CPPh in RESPONS)
  Joanna Kauczor,              Linkoeping University,     Sweden      (Complex polarization propagator (CPP) module)
  Sheela Kirpekar,             Univ. of Southern Denmark, Denmark     (Mass-velocity & Darwin integrals)
  Frederik Oersted Kjeldal,    Technical Univ. of Denmark,Denmark     (MP3)
  Erik Kjellgren,              Univ. of Southern Denmark, Denmark     (MC-srDFT)
  Wim Klopper,                 KIT Karlsruhe,             Germany     (R12 code in CC, SIRIUS, and ABACUS modules)
  Stefan Knecht,               ETH Zurich,                Switzerland (Parallel CI and MCSCF, MC-srDFT)
  Rika Kobayashi,              Australian National Univ., Australia   (DIIS in CC, London in MCSCF)
  Henrik Koch,                 NTNU,                      Norway      (CC module, Cholesky decomposition)
  Jacob Kongsted,              Univ. of Southern Denmark, Denmark     (Polarizable embedding, polarizable density embedding, QM/MM)
  Andrea Ligabue,              University of Modena,      Italy       (CTOCD, AOSOPPA)
  Nanna H. List,               Univ. of Southern Denmark, Denmark     (Polarizable embedding)
  Ola B. Lutnaes,              University of Oslo,        Norway      (DFT Hessian)
  Juan I. Melo,                University of Buenos Aires,Argentina   (LRESC, Relativistic Effects on NMR Shieldings)
  Kurt V. Mikkelsen,           University of Copenhagen,  Denmark     (MC-SCRF, QM/MM, and MP3)
  Rolf H. Myhre,               NTNU,                      Norway      (Subsystems and CC3)
  Christian Neiss,             Univ. Erlangen-Nuernberg,  Germany     (CCSD(R12))
  Christian B. Nielsen,        University of Copenhagen,  Denmark     (QM/MM)
  Patrick Norman,              KTH Stockholm,             Sweden      (Cubic response and complex frequency response in RESPONS)
  Jeppe Olsen,                 Aarhus University,         Denmark     (SIRIUS CI/density modules)
  Jogvan Magnus H. Olsen,      Aarhus University,         Denmark     (Polarizable embedding and polarizable density embedding)
  Anders Osted,                Copenhagen University,     Denmark     (QM/MM)
  Martin J. Packer,            University of Sheffield,   UK          (SOPPA)
  Filip Pawlowski,             Kazimierz Wielki UniversityPoland      (CC3)
  Morten N. Pedersen,          Univ. of Southern Denmark, Denmark     (Polarizable embedding)
  Thomas B. Pedersen,          University of Oslo,        Norway      (Cholesky decomposition)
  Patricio F. Provasi,         University of Northeastern,Argentina   (Analysis of coupling constants in localized orbitals)
  Peter Reinholdt,             Univ. of Southern Denmark, Denmark     (Polarizable embedding and polarizable density embedding)
  Zilvinas Rinkevicius,        KTH Stockholm,             Sweden      (open-shell DFT, ESR)
  Elias Rudberg,               KTH Stockholm,             Sweden      (DFT grid and basis info)
  Torgeir A. Ruden,            University of Oslo,        Norway      (Numerical derivatives in ABACUS)
  Kenneth Ruud,                UiT The Arctic U. of NorwayNorway      (DALTON; ABACUS magnetic properties and much more)
  Pawel Salek,                 KTH Stockholm,             Sweden      (DALTON; DFT code)
  Claire C. M. Samson,         University of Karlsruhe    Germany     (Boys localization, r12 integrals in ERI)
  Alfredo Sanchez de Meras,    University of Valencia,    Spain       (CC module, Cholesky decomposition)
  Trond Saue,                  Paul Sabatier University,  France      (direct Fock matrix construction)
  Stephan P. A. Sauer,         University of Copenhagen,  Denmark     (SOPPA(CCSD), SOPPA prop., AOSOPPA, vibrational g-factors)
  Bernd Schimmelpfennig,       Forschungszentrum KarlsruheGermany     (AMFI module)
  Anna K. Schnack-Petersen,    University of Copenhagen,  Denmark     (RPA(D) and HRPA(D) properties in AOSOPPA)
  Kristian Sneskov,            Aarhus University,         Denmark     (Polarizable embedding, QM/MM)
  Arnfinn H. Steindal,         UiT The Arctic U. of NorwayNorway      (parallel QM/MM, polarizable embedding)
  Casper Steinmann,            Aalborg University,        Denmark     (QFIT, polarizable embedding)
  K. O. Sylvester-Hvid,        University of Copenhagen,  Denmark     (MC-SCRF)
  Peter R. Taylor,             VLSCI/Univ. of Melbourne,  Australia   (Symmetry handling ABACUS, integral transformation)
  Andrew M. Teale,             University of Nottingham,  England     (DFT-AC, DFT-D)
  David P. Tew,                University of Bristol,     England     (CCSD(R12))
  Julien Toulouse,             Sorbonne Univ.,            France      (MC-srDFT)
  Olav Vahtras,                KTH Stockholm,             Sweden      (Triplet response, spin-orbit, ESR, TDDFT, open-shell DFT)
  Lucas Visscher,              Vrije Universiteit AmsterdaNetherlands (Frozen density embedding)
  David J. Wilson,             La Trobe University,       Australia   (DFT Hessian and DFT magnetizabilities)
  Luna Zamok,                  University of Copenhagen,  Denmark     (Block Lanczos RPA solver in SOPPA module)
  Hans Agren,                  KTH Stockholm,             Sweden      (SIRIUS module, RESPONS, MC-SCRF solvation)
 --------------------------------------------------------------------------------

     Date and time (Linux)  : Tue Jul  7 10:31:40 2026
     Host name              : n-62-31-4                               

 * Work memory size             :   512000000 =  3.815 gigabytes.

 * Directories for basis set searches:
   1) /work3/jochar/DaltonTests
   2) /zhome/d7/7/119775/My_Codes/Dalton_Release/dalton/build_omp_nov24/basis


Compilation information
-----------------------

 Who compiled             | soco
 Host                     | hpclogin1
 System                   | Linux-6.1.112-1.el9.elrepo.x86_64
 CMake generator          | Unix Makefiles
 Processor                | x86_64
 64-bit integers          | OFF
 MPI                      | OFF
 Fortran compiler         | /appl/intel/2023.2.0.49397/compiler/2023.2.0/linux
                          | /bin/intel64/ifort
 Fortran compiler version | ifort (IFORT) 2021.10.0 20230609
 C compiler               | /appl/intel/2023.2.0.49397/compiler/2023.2.0/linux
                          | /bin/intel64/icc
 C compiler version       | icc (ICC) 2021.10.0 20230609
 C++ compiler             | /appl/intel/2023.2.0.49397/compiler/2023.2.0/linux
                          | /bin/intel64/icpc
 C++ compiler version     | icpc (ICC) 2021.10.0 20230609
 Static linking           | OFF
 Last Git revision        | a531ac4fbf115ebda1c90140ce3fd6aa236a2033
 Git branch               | master
 Configuration time       | 2024-11-14 11:23:30.470039

 * Sequential calculation.


   Content of the .dal input file
 ----------------------------------

**DALTON INPUT
.RUN WAVE FUNCTIONS   !tipo di calcolo
.RUN RESPONSE
**INTEGRALS
.DIPLEN               !integrali dell'operatore dipolo elettrico
**WAVE FUNCTION
.HF
.CI
!*PRINT
!.PRINTL
!   0 11
*SCF INP              !parte da Hartree-Fock
.DOUBLY OCCUPIED
4
.THRESH               !soglia di convergenza
 1.0D-10
*CONFIGURATION INPUT
.SPIN MULTIPLICITY
1
.SYMMETRY
1
.INACTIVE ORBITALS !the inner electrons are kept frozen
0
.CAS SPACE
7
.ELECTRONS
10
**RESPONS
*LINEAR
.THCLR
1.0d-9
.DIPLEN
.SINGLE RESIDUE
.ROOTS
300
**END OF INPUT


   Content of the .mol file
 ----------------------------

BASIS
STO-3G
test VQE
dalton test
Atomtypes=2 Angstrom Nosymmetry
Charge=6.0 Atoms=1
O     0.1035000000000000  0.0000000000000000  0.0
Charge=1.0 Atoms=2
H    -0.4640000000000000  0.7956000000000000  0.0
H    -0.4640000000000000  -0.7956000000000000  0.0


       *******************************************************************
       *********** Output from DALTON general input processing ***********
       *******************************************************************

 --------------------------------------------------------------------------------
   Overall default print level:    0
   Print level for DALTON.STAT:    1

    HERMIT 1- and 2-electron integral sections will be executed
    "Old" integral transformation used (limited to max 255 basis functions)
    Wave function sections will be executed (SIRIUS module)
    Dynamic molecular response properties section will be executed (RESPONSE module)
 --------------------------------------------------------------------------------


   ****************************************************************************
   *************** Output of molecule and basis set information ***************
   ****************************************************************************


    The two title cards from your ".mol" input:
    --------------------------------------------------------------------------------
 1: test VQE
 2: dalton test
    --------------------------------------------------------------------------------

  Coordinates are entered in Angstrom and converted to atomic units.
          - Conversion factor : 1 bohr = 0.52917721 A

  Atomic type no.    1
  --------------------
  Nuclear charge:   6.00000
  Number of symmetry independent centers:    1
  Number of basis sets to read;    2
  Basis set file used for this atomic type with Z =   6 :
     "/zhome/d7/7/119775/My_Codes/Dalton_Release/dalton/build_omp_nov24/basis/STO-3G"

  Atomic type no.    2
  --------------------
  Nuclear charge:   1.00000
  Number of symmetry independent centers:    2
  Number of basis sets to read;    2
  Basis set file used for this atomic type with Z =   1 :
     "/zhome/d7/7/119775/My_Codes/Dalton_Release/dalton/build_omp_nov24/basis/STO-3G"


                         SYMGRP: Point group information
                         -------------------------------

@    Point group: C1 


                                 Isotopic Masses
                                 ---------------

                           O          12.000000
                           H           1.007825
                           H           1.007825

                       Total mass:    14.015650 amu
                       Natural abundance:  98.870 %

 Center-of-mass coordinates (a.u.):    0.041357    0.000000    0.000000
 Center-of-mass coordinates (Angs):    0.021885    0.000000    0.000000


  Atoms and basis sets
  --------------------

  Number of atom types :    2
  Total number of atoms:    3

  Basis set used is "STO-3G" from the basis set library.

  label    atoms   charge   prim   cont     basis
  ----------------------------------------------------------------------
  O           1    6.0000    15     5      [6s3p|2s1p]                                        
  H           2    1.0000     3     1      [3s|1s]                                            
  ----------------------------------------------------------------------
  total:      3    8.0000    21     7
  ----------------------------------------------------------------------

  Threshold for neglecting AO integrals:  1.00D-12


  Cartesian Coordinates (a.u.)
  ----------------------------

  Total number of coordinates:    9
  O       :     1  x   0.1955866539    2  y   0.0000000000    3  z   0.0000000000
  H       :     4  x  -0.8768329220    5  y   1.5034661050    6  z   0.0000000000
  H       :     7  x  -0.8768329220    8  y  -1.5034661050    9  z   0.0000000000


   Interatomic separations (in Angstrom):
   --------------------------------------

            O           H           H     
            ------      ------      ------
 O     :    0.000000
 H     :    0.977259    0.000000
 H     :    0.977259    1.591200    0.000000


  Max    interatomic separation is    1.5912 Angstrom (    3.0069 Bohr)
  between atoms    3 and    2, "H     " and "H     ".

  Min HX interatomic separation is    0.9773 Angstrom (    1.8468 Bohr)


  Bond distances (Angstrom):
  --------------------------

                  atom 1     atom 2       distance
                  ------     ------       --------
  bond distance:  H          O            0.977259
  bond distance:  H          O            0.977259


  Bond angles (degrees):
  ----------------------

                  atom 1     atom 2     atom 3         angle
                  ------     ------     ------         -----
  bond angle:     H          O          H            109.000




 Principal moments of inertia (u*A**2) and principal axes
 --------------------------------------------------------

   IA       0.555795          0.000000    1.000000    0.000000
   IB       1.275865          1.000000    0.000000    0.000000
   IC       1.831660          0.000000    0.000000    1.000000


 Rotational constants
 --------------------

@    The molecule is planar.

               A                   B                   C

         909289.8431         396107.0071         275913.0898 MHz
           30.330644           13.212708            9.203470 cm-1


@  Nuclear repulsion energy :    6.830458472614 Hartree


                     .---------------------------------------.
                     | Starting in Integral Section (HERMIT) |
                     `---------------------------------------'



 ***************************************************************************************
 ****************** Output from **INTEGRALS input processing (HERMIT) ******************
 ***************************************************************************************



    *************************************************************************
    ****************** Output from HERMIT input processing ******************
    *************************************************************************


 Default print level:        1

 Calculation of one- and two-electron Hamiltonian integrals.

 The following one-electron property integrals are calculated as requested:
          - overlap integrals
          - dipole length integrals

 Center of mass  (bohr):      0.041357451707      0.000000000000      0.000000000000
 Operator center (bohr):      0.000000000000      0.000000000000      0.000000000000
 Gauge origin    (bohr):      0.000000000000      0.000000000000      0.000000000000
 Dipole origin   (bohr):      0.000000000000      0.000000000000      0.000000000000

Calculation of 2-electron integrals are postponed until they are needed.


     ************************************************************************
     ************************** Output from HERINT **************************
     ************************************************************************



                      Nuclear contribution to dipole moments
                      --------------------------------------

                 au               Debye          C m (/(10**-30)

      x     -0.58014592        -1.47458375        -4.91868195
      y      0.00000000         0.00000000         0.00000000
      z      0.00000000         0.00000000         0.00000000


  Total CPU  time used in HERMIT:   0.01 seconds
  Total wall time used in HERMIT:   0.03 seconds


                        .----------------------------------.
                        | End of Integral Section (HERMIT) |
                        `----------------------------------'



                   .--------------------------------------------.
                   | Starting in Wave Function Section (SIRIUS) |
                   `--------------------------------------------'


     WARNING  Reference state is required for CI response and CI-NO
     WARNING  ".STATE" was not specified for "*CI INPUT",
     WARNING  the reference state is set to be state no.  1

 *** Output from Huckel module :

     Using EWMO model:          T
     Using EHT  model:          F
     Number of Huckel orbitals each symmetry:    7

 EWMO - Energy Weighted Maximum Overlap - is a Huckel type method,
        which normally is better than Extended Huckel Theory.
 Reference: Linderberg and Ohrn, Propagators in Quantum Chemistry (Wiley, 1973)

 Huckel EWMO eigenvalues for symmetry :  1
          -11.347822      -1.217320      -0.652833      -0.453354      -0.406900
           -0.098571      -0.094400

 **********************************************************************
 *SIRIUS* a direct, restricted step, second order MCSCF program       *
 **********************************************************************

 
     Date and time (Linux)  : Tue Jul  7 10:31:40 2026
     Host name              : n-62-31-4                               

 Title lines from ".mol" input file:
     test VQE
     dalton test

 Print level on unit LUPRI =   2 is   0
 Print level on unit LUW4  =   2 is   5

@    Configuration interaction calculation.

@    CI response calculation.

@    CI type: user specified active spaces.
@              Type: complete active space calculation (CAS).

@    This is a combination run starting with
@              a restricted, closed shell Hartree-Fock calculation


 Initial molecular orbitals are obtained according to
 ".MOSTART EWMO  " input option

     Wave function specification
     ============================
@    Wave function type        --- CI ---
@    Number of closed shell electrons           0
@    Number of electrons in active shells      10
@    Total charge of the molecule              -2

@    Spin multiplicity and 2 M_S                1         0
@    Total number of symmetries                 1 (point group: C1 )
@    Reference state symmetry                   1 (irrep name : A  )

     Orbital specifications
     ======================
@    Abelian symmetry species          All |    1
@                                          |  A  
                                       --- |  ---
@    Inactive orbitals                   0 |    0
@    Active orbitals                     7 |    7
@    Secondary orbitals                  0 |    0
@    Total number of orbitals            7 |    7
@    Number of basis functions           7 |    7

      -- Initial occupation of symmetries is determined from user input.                      
      -- Initial occupation of symmetries is :
@    Occupied SCF orbitals               4 |    4

     Optimization information
     ========================
@    Number of configurations               196
@    Number of orbital rotations              0
     ------------------------------------------
@    Total number of variables              196

     Maximum number of CI iterations         25
     Threshold for CI convergence      1.00D-05
     Number of CI roots to converge           1

@    Reference state in CI response calculation :       1


 ***********************************************
 ***** DIIS acceleration of SCF iterations *****
 ***********************************************

 C1-DIIS algorithm; max error vectors =    8

 Iter      Total energy        Error norm    Delta(E)  DIIS dim.
 -----------------------------------------------------------------------------

Calculating AOSUPINT

---> (Re)generating AOTWOINT


     ************************************************************************
     ************************** Output from HERINT **************************
     ************************************************************************


 Threshold for neglecting two-electron integrals:  1.00D-12
 HERMIT - Number of two-electron integrals written:         228 ( 56.2% )
 HERMIT - Megabytes written:                              0.137

     (Precalculated AO two-electron integrals are transformed to P-supermatrix elements.
      Threshold for discarding integrals :  1.00D-12 )

@  1    -38.3153895540        5.29790D-01   -3.83D+01    1
      Virial theorem: -V/T =      1.990444
@    MULPOP   O       0.16; H      -0.08; H      -0.08; 
   1  Level shift: doubly occupied orbital energies shifted by -2.00D-01
 -----------------------------------------------------------------------------
@  2    -38.3323874183        1.06389D-01   -1.70D-02    2
      Virial theorem: -V/T =      1.988287
@    MULPOP   O      -0.05; H       0.03; H       0.03; 
   2  Level shift: doubly occupied orbital energies shifted by -5.00D-02
 -----------------------------------------------------------------------------
@  3    -38.3333567627        1.34263D-02   -9.69D-04    3
      Virial theorem: -V/T =      1.987288
@    MULPOP   O      -0.10; H       0.05; H       0.05; 
   3  Level shift: doubly occupied orbital energies shifted by -1.25D-02
 -----------------------------------------------------------------------------
@  4    -38.3333741139        4.37157D-04   -1.74D-05    4
      Virial theorem: -V/T =      1.987149
@    MULPOP   O      -0.10; H       0.05; H       0.05; 
 -----------------------------------------------------------------------------
@  5    -38.3333741391        8.56994D-05   -2.51D-08    5
      Virial theorem: -V/T =      1.987147
@    MULPOP   O      -0.10; H       0.05; H       0.05; 
 -----------------------------------------------------------------------------
@  6    -38.3333741403        1.82722D-06   -1.22D-09    6
      Virial theorem: -V/T =      1.987146
@    MULPOP   O      -0.10; H       0.05; H       0.05; 
 -----------------------------------------------------------------------------
@  7    -38.3333741403        4.06638D-11   -5.33D-13    7

@ *** DIIS converged in   7 iterations !
@     Converged SCF energy, gradient:    -38.333374140285    4.07D-11
    - total time used in SIRFCK :              0.00 seconds

 --- Writing SIRIFC interface file

--------------------------------------------------------------------------------


     .--------------------------------------------------.
     | HF-SCF KT IPs [a.u. & eV] from Koopmans' theorem |
     `--------------------------------------------------'


     HF-SCF KT symmetry 1 ( A  ) in point group C1  -- 4 principal poles with pole strength 1

   ============  ============  ============  ============
      11.004088      0.892749      0.570218      0.308723
     299.436453     24.292945     15.516414      8.400772
   ============  ============  ============  ============

@ Summary of HF-SCF KT ionization potentials [eV]:

@ Symmetry 1 (A  ) :   299.436      24.293      15.516       8.401

  === End of HF-SCF KT output ===
--------------------------------------------------------------------------------


 CPU and wall time for SCF :       0.041       0.220


 ----- Output from SIRIUS CI module (CICTL) -----




 2-el. integral transformation level 0: Total CPU and WALL times (sec)       0.008       0.033

 (CIST1) 8 lowest diagonal elements:

 Element no. Config.no.    Active energy      Total energy

         1 :          1    -44.0551125012    -37.2246540285
         2 :         22    -43.5811339930    -36.7506755204
         3 :         23    -43.5670175639    -36.7365590913
         4 :         25    -43.4777094779    -36.6472510053
         5 :         26    -43.4568310984    -36.6263726258
         6 :         28    -43.1049356938    -36.2744772212
         7 :         29    -43.0156884994    -36.1852300268
         8 :         24    -42.9435989327    -36.1131404601

Lowest 1 elements are used as separate start CI vectors.


 Convergence threshold for CI optimization :     0.00001000


 CI root     eigenvalue        residual norm

    1      -37.2246540285        0.4909160928

 CI root     eigenvalue        residual norm

    1      -37.3647556951        0.1558839747

 CI root     eigenvalue        residual norm

    1      -37.3735755370        0.0249101844

 CI root     eigenvalue        residual norm

    1      -37.3738007988        0.0052842711

 CI root     eigenvalue        residual norm

    1      -37.3738104250        0.0009012295

 CI root     eigenvalue        residual norm

    1      -37.3738106775        0.0001067862

 CI root     eigenvalue        residual norm

    1      -37.3738106819        0.0000180281

 CI root     eigenvalue        residual norm

    1      -37.3738106820        0.0000027428 converged

 The requested root number is now converged.


 *** CI converged in  8 iterations.



@ Final CI energies and residuals in symmetry 1 (irrep A  )
@    1      -37.373810682049601       2.74D-06

 Writing SIRIFC interface file for CI root no. 1

 CPU and wall time for CI :       0.022       0.079


                       .-----------------------------------.
                       | --- Final results from SIRIUS --- |
                       `-----------------------------------'


@    Spin multiplicity:           1
@    Spatial symmetry:            1 ( irrep  A   in C1  )
@    Total charge of molecule:   -2

@    This was a CI calculation.
@    State number:                1

@    Final CI energy:             -37.373810682050
@    Nuclear repulsion:             6.830458472614
@    Electronic energy:           -44.204269154664

@    Final gradient norm:           0.000002742802

 
     Date and time (Linux)  : Tue Jul  7 10:31:40 2026
     Host name              : n-62-31-4                               

 Occupancies of natural orbitals
 -------------------------------

 Symmetry 1  ( A  ) -- Total occupation in this symmetry is  10.000000000

   1.999987640   1.996107144   1.989942383   1.989747262   1.996030932
   0.014362823   0.013821817

  Effective numbers of unpaired electrons this symmetry Eqs. 1) and 2):  0.11  0.00

  Total effective number of unpaired electrons :
  Eq. 1) sum(i) [(2 - n_i) n_i]    =  0.1121
  Eq. 2) sum(i) [(2 - n_i) n_i]**2 =  0.0025
 (Reference: M. Head-Gordon, Chemical Physics Letters 372 (2003) 508-511)

  --- NOTE THAT THE OCCUPATION NUMBERS ARE FOR ANALYSIS PURPOSE ONLY
  --- The orbital coefficients have NOT been transformed
  --- to ordered natural orbitals.

File label for MO orbitals:   7Jul26    CIORB  

 (Only coefficients > 0.0100 are printed.)

 Molecular orbitals for symmetry species 1  (A  )
 ------------------------------------------------

    Orbital         1        2        3        4        5        6        7
   1 O   :1s    -0.9928   0.2156   0.0000   0.1331   0.0000  -0.1830  -0.0000
   2 O   :1s    -0.0338  -0.6096  -0.0000  -0.6182  -0.0000   1.3592   0.0000
   3 O   :2px    0.0080   0.1955   0.0000  -0.7978  -0.0000  -0.8512  -0.0000
   4 O   :2py    0.0000   0.0000  -0.5367  -0.0000  -0.0000  -0.0000   1.2132
   5 O   :2pz    0.0000   0.0000   0.0000   0.0000  -1.0000  -0.0000  -0.0000
   6 H   :1s     0.0090  -0.2773  -0.4513   0.1755   0.0000  -1.0317  -0.9653
   7 H   :1s     0.0090  -0.2773   0.4513   0.1755   0.0000  -1.0317   0.9653

 Printout of CI-coefficients abs greater than 0.05000 for root  1
 *** NOTE: this root is the CI reference state ***

 Printout of coefficients in interval  3.1623E-01 to  1.0000E+00
 ===============================================================

  Coefficient of CSF no.         1 is      0.94808851    9.48088506E-01
  Orbital          1   2   3   4   5
  Spin coupling    2   2   2   2   2

 Printout of coefficients in interval  1.0000E-01 to  3.1623E-01
 ===============================================================

  Coefficient of CSF no.        25 is     -0.14705879   -1.47058794E-01
  Orbital          1   2   3   5   4   6
  Spin coupling    2   2   2   2   1  -1

  Coefficient of CSF no.        29 is      0.20919299    2.09192990E-01
  Orbital          1   2   4   5   3   7
  Spin coupling    2   2   2   2   1  -1

  Coefficient of CSF no.        31 is      0.15999673    1.59996730E-01
  Orbital          1   3   4   5   2   6
  Spin coupling    2   2   2   2   1  -1

 Printout of coefficients in interval  5.0000E-02 to  1.0000E-01
 ===============================================================
   ( no coefficients )

 Norm of printed CI vector ..      0.98985876

 Magnitude of CI coefficients
 ============================
 ( Ranges are relative to norm of vector :  1.00E+00 )

  10- 1 to 10- 0         4    0.98985876E+00      0.9898587648
  10- 2 to 10- 1        14    0.97420150E-02      0.9996007799
  10- 3 to 10- 2        21    0.39636491E-03      0.9999971448
  10- 4 to 10- 3        17    0.27960950E-05      0.9999999409
  10- 5 to 10- 4        13    0.59112566E-07      1.0000000000
  10- 6 to 10- 5         1    0.21478715E-10      1.0000000000
  Number of coefficients less than 10^-11 times norm is          126

  Total CPU  time used in SIRIUS :   0.08 seconds
  Total wall time used in SIRIUS :   0.38 seconds

 
     Date and time (Linux)  : Tue Jul  7 10:31:40 2026
     Host name              : n-62-31-4                               


                     .---------------------------------------.
                     | End of Wave Function Section (SIRIUS) |
                     `---------------------------------------'



                 .------------------------------------------------.
                 | Starting in Dynamic Property Section (RESPONS) |
                 `------------------------------------------------'


 ----------------------------------------------------------------------------------------
  RESPONSE  -  an MCSCF, MC-srDFT, DFT, SOPPA and SOPPA-srDFT response property program
 ----------------------------------------------------------------------------------------

 This is a configuration interaction response calculation.
   Note: this is equivalent to a CI sum-over-states calculation of response properties.


 -------- OUTPUT FROM RESPONSE INPUT PROCESSING --------




  Linear Response single residue calculation
 -------------------------------------------


    4 input options by user.

 Print level                                    : IPRPP  =   2
 Maximum number of iterations for eigenval.eqs. : MAXITP =  60
 Threshold for convergence of eigenvalue eqs.   : THCPP  = 1.000D-03
 Maximum iterations in optimal orbital algorithm: MAXITO =   5

    300 Excitation energies are calculated for symmetry no.    1

      3 property residues are calculated with labels:

               XDIPLEN 
               YDIPLEN 
               ZDIPLEN 

 Old direct access AO file found, SORTA skipped.

 2-el. integral transformation level 4: Total CPU and WALL times (sec)       0.004       0.033


 CI energy            :      -37.373810682049601
 -- inactive part     :        6.830458472614062
 --   active part     :      -44.204269154663663
 -- nuclear repulsion :        6.830458472614062


                         *******************************
                         *** CI response calculation ***
                         *******************************

 ----------------------------------------------------------------
 ----- Linear response calculation
 ----- Symmetry of excitation/property operator(s)    1  ( A  )
 ----------------------------------------------------------------

 Number of excitations of this symmetry          300
 Number of response properties of this symmetry    0
 Number of C6/C8 properties of this symmetry       0


 Perturbation symmetry.     KSYMOP:           1
 Perturbation spin symmetry.TRPLET:           F
 Orbital variables.         KZWOPT:           0
 Configuration variables.   KZCONF:         196
 Total number of variables. KZVAR :         196

 ** RSPVAR ** Number of PP start vectors  300
   exceeds the maximum number of variables  195
   Number of start vectors reset to number of variables



 --- EXCITATION ENERGIES AND TRANSITION MOMENT CALCULATION (MCTDHF) ---

 Operator symmetry = 1  ( A  ); triplet =   F

RSPORT:    1 out of   76 new trial vectors linear dependent

 ** RSPCTL MICROITERATION NUMBER    1

      Root  Residual tot.,    conf., and orb.    Bnorm      Eigenvalue
      ----------------------------------------------------------------
         1    2.20177D-14  2.20D-14  0.00D+00  1.00D+00    5.74119D-01
         2    2.23989D-14  2.24D-14  0.00D+00  1.00D+00    6.02814D-01
         3    3.16252D-14  3.16D-14  0.00D+00  1.00D+00    6.77667D-01
         4    2.31083D-14  2.31D-14  0.00D+00  1.00D+00    7.33874D-01
         5    2.10753D-14  2.11D-14  0.00D+00  1.00D+00    1.05628D+00
         6    2.70414D-14  2.70D-14  0.00D+00  1.00D+00    1.12337D+00
         7    2.51904D-14  2.52D-14  0.00D+00  1.00D+00    1.18333D+00
         8    2.40823D-14  2.41D-14  0.00D+00  1.00D+00    1.24013D+00
         9    2.14744D-14  2.15D-14  0.00D+00  1.00D+00    1.26577D+00
        10    2.30003D-14  2.30D-14  0.00D+00  1.00D+00    1.27714D+00
        11    3.00573D-14  3.01D-14  0.00D+00  1.00D+00    1.29729D+00
        12    2.43958D-14  2.44D-14  0.00D+00  1.00D+00    1.36189D+00
        13    2.93353D-14  2.93D-14  0.00D+00  1.00D+00    1.41247D+00
        14    1.96225D-14  1.96D-14  0.00D+00  1.00D+00    1.41508D+00
        15    2.21860D-14  2.22D-14  0.00D+00  1.00D+00    1.43797D+00
        16    2.13963D-14  2.14D-14  0.00D+00  1.00D+00    1.45243D+00
        17    1.93569D-14  1.94D-14  0.00D+00  1.00D+00    1.52412D+00
        18    1.95024D-14  1.95D-14  0.00D+00  1.00D+00    1.54170D+00
        19    1.71453D-14  1.71D-14  0.00D+00  1.00D+00    1.57217D+00
        20    2.18881D-14  2.19D-14  0.00D+00  1.00D+00    1.61379D+00
        21    2.00076D-14  2.00D-14  0.00D+00  1.00D+00    1.64482D+00
        22    1.90194D-14  1.90D-14  0.00D+00  1.00D+00    1.68734D+00
        23    2.10104D-14  2.10D-14  0.00D+00  1.00D+00    1.69487D+00
        24    2.44429D-14  2.44D-14  0.00D+00  1.00D+00    1.74556D+00
        25    2.43872D-14  2.44D-14  0.00D+00  1.00D+00    1.80266D+00
        26    3.00097D-14  3.00D-14  0.00D+00  1.00D+00    1.81144D+00
        27    2.01966D-14  2.02D-14  0.00D+00  1.00D+00    1.90225D+00
        28    1.66145D-14  1.66D-14  0.00D+00  1.00D+00    1.92922D+00
        29    2.76147D-14  2.76D-14  0.00D+00  1.00D+00    1.93331D+00
        30    1.92320D-14  1.92D-14  0.00D+00  1.00D+00    1.98966D+00
        31    2.63900D-14  2.64D-14  0.00D+00  1.00D+00    2.01213D+00
        32    2.34875D-14  2.35D-14  0.00D+00  1.00D+00    2.02472D+00
        33    2.17349D-14  2.17D-14  0.00D+00  1.00D+00    2.05739D+00
        34    2.21569D-14  2.22D-14  0.00D+00  1.00D+00    2.07564D+00
        35    1.80277D-14  1.80D-14  0.00D+00  1.00D+00    2.08316D+00
        36    2.43225D-14  2.43D-14  0.00D+00  1.00D+00    2.09089D+00
        37    1.76709D-14  1.77D-14  0.00D+00  1.00D+00    2.13421D+00
        38    2.58252D-14  2.58D-14  0.00D+00  1.00D+00    2.15474D+00
        39    1.95671D-14  1.96D-14  0.00D+00  1.00D+00    2.16270D+00
        40    2.10487D-14  2.10D-14  0.00D+00  1.00D+00    2.20290D+00
        41    2.85607D-14  2.86D-14  0.00D+00  1.00D+00    2.23578D+00
        42    2.53951D-14  2.54D-14  0.00D+00  1.00D+00    2.27462D+00
        43    2.05604D-14  2.06D-14  0.00D+00  1.00D+00    2.27591D+00
        44    1.78684D-14  1.79D-14  0.00D+00  1.00D+00    2.27721D+00
        45    1.98461D-14  1.98D-14  0.00D+00  1.00D+00    2.33681D+00
        46    1.85004D-14  1.85D-14  0.00D+00  1.00D+00    2.37828D+00
        47    2.98173D-14  2.98D-14  0.00D+00  1.00D+00    2.40530D+00
        48    1.96418D-14  1.96D-14  0.00D+00  1.00D+00    2.40714D+00
        49    2.05811D-14  2.06D-14  0.00D+00  1.00D+00    2.43523D+00
        50    1.78031D-14  1.78D-14  0.00D+00  1.00D+00    2.50438D+00
        51    2.67664D-14  2.68D-14  0.00D+00  1.00D+00    2.53031D+00
        52    2.07823D-14  2.08D-14  0.00D+00  1.00D+00    2.56508D+00
        53    2.30188D-14  2.30D-14  0.00D+00  1.00D+00    2.57783D+00
        54    2.08503D-14  2.09D-14  0.00D+00  1.00D+00    2.57988D+00
        55    2.28748D-14  2.29D-14  0.00D+00  1.00D+00    2.59998D+00
        56    2.22984D-14  2.23D-14  0.00D+00  1.00D+00    2.61031D+00
        57    2.05965D-14  2.06D-14  0.00D+00  1.00D+00    2.63792D+00
        58    2.89292D-14  2.89D-14  0.00D+00  1.00D+00    2.69810D+00
        59    1.88726D-14  1.89D-14  0.00D+00  1.00D+00    2.70374D+00
        60    1.84467D-14  1.84D-14  0.00D+00  1.00D+00    2.72834D+00
        61    2.21826D-14  2.22D-14  0.00D+00  1.00D+00    2.74721D+00
        62    2.31548D-14  2.32D-14  0.00D+00  1.00D+00    2.76943D+00
        63    2.16884D-14  2.17D-14  0.00D+00  1.00D+00    2.77839D+00
        64    2.48937D-14  2.49D-14  0.00D+00  1.00D+00    2.81690D+00
        65    2.33075D-14  2.33D-14  0.00D+00  1.00D+00    2.81825D+00
        66    2.35028D-14  2.35D-14  0.00D+00  1.00D+00    2.92050D+00
        67    2.46008D-14  2.46D-14  0.00D+00  1.00D+00    2.92996D+00
        68    1.96409D-14  1.96D-14  0.00D+00  1.00D+00    2.93356D+00
        69    2.17541D-14  2.18D-14  0.00D+00  1.00D+00    2.95943D+00
        70    3.04424D-14  3.04D-14  0.00D+00  1.00D+00    2.96010D+00
        71    2.89247D-14  2.89D-14  0.00D+00  1.00D+00    2.97096D+00
        72    2.27379D-14  2.27D-14  0.00D+00  1.00D+00    3.03444D+00
        73    2.41844D-14  2.42D-14  0.00D+00  1.00D+00    3.05153D+00
        74    2.44052D-14  2.44D-14  0.00D+00  1.00D+00    3.06881D+00
        75    2.09518D-14  2.10D-14  0.00D+00  1.00D+00    3.10888D+00
        76    3.01686D-14  3.02D-14  0.00D+00  1.00D+00    3.14366D+00
        77    2.85926D-14  2.86D-14  0.00D+00  1.00D+00    3.16408D+00
        78    3.33997D-14  3.34D-14  0.00D+00  1.00D+00    3.19125D+00
        79    4.01978D-14  4.02D-14  0.00D+00  1.00D+00    3.21583D+00
        80    2.34312D-14  2.34D-14  0.00D+00  1.00D+00    3.22675D+00
        81    2.51174D-14  2.51D-14  0.00D+00  1.00D+00    3.31507D+00
        82    2.54879D-14  2.55D-14  0.00D+00  1.00D+00    3.36816D+00
        83    2.62348D-14  2.62D-14  0.00D+00  1.00D+00    3.39524D+00
        84    2.62764D-14  2.63D-14  0.00D+00  1.00D+00    3.40245D+00
        85    3.05685D-14  3.06D-14  0.00D+00  1.00D+00    3.40688D+00
        86    2.84393D-14  2.84D-14  0.00D+00  1.00D+00    3.49548D+00
        87    3.10725D-14  3.11D-14  0.00D+00  1.00D+00    3.53530D+00
        88    2.52613D-14  2.53D-14  0.00D+00  1.00D+00    3.55180D+00
        89    3.63513D-14  3.64D-14  0.00D+00  1.00D+00    3.60927D+00
        90    2.69325D-14  2.69D-14  0.00D+00  1.00D+00    3.62891D+00
        91    3.61450D-14  3.61D-14  0.00D+00  1.00D+00    3.64438D+00
        92    2.67567D-14  2.68D-14  0.00D+00  1.00D+00    3.67109D+00
        93    3.38971D-14  3.39D-14  0.00D+00  1.00D+00    3.76859D+00
        94    3.03962D-14  3.04D-14  0.00D+00  1.00D+00    3.84103D+00
        95    3.03405D-14  3.03D-14  0.00D+00  1.00D+00    3.84134D+00
        96    3.14227D-14  3.14D-14  0.00D+00  1.00D+00    3.84374D+00
        97    3.31514D-14  3.32D-14  0.00D+00  1.00D+00    3.93006D+00
        98    3.82664D-14  3.83D-14  0.00D+00  1.00D+00    4.04327D+00
        99    4.44652D-14  4.45D-14  0.00D+00  1.00D+00    4.06968D+00
       100    2.68082D-14  2.68D-14  0.00D+00  1.00D+00    4.07065D+00
       101    5.61981D-14  5.62D-14  0.00D+00  1.00D+00    4.19760D+00
       102    4.12430D-14  4.12D-14  0.00D+00  1.00D+00    4.25515D+00
       103    3.36897D-14  3.37D-14  0.00D+00  1.00D+00    4.34356D+00
       104    4.52218D-14  4.52D-14  0.00D+00  1.00D+00    4.80650D+00
       105    7.08749D-14  7.09D-14  0.00D+00  1.00D+00    1.06062D+01
       106    4.30981D-14  4.31D-14  0.00D+00  1.00D+00    1.06102D+01
       107    1.23136D-13  1.23D-13  0.00D+00  1.00D+00    1.11428D+01
       108    9.37862D-14  9.38D-14  0.00D+00  1.00D+00    1.11757D+01
       109    4.77975D-14  4.78D-14  0.00D+00  1.00D+00    1.12233D+01
       110    1.07981D-13  1.08D-13  0.00D+00  1.00D+00    1.12680D+01
       111    8.57392D-14  8.57D-14  0.00D+00  1.00D+00    1.13145D+01
       112    8.72712D-14  8.73D-14  0.00D+00  1.00D+00    1.13632D+01
       113    5.22140D-14  5.22D-14  0.00D+00  1.00D+00    1.14013D+01
       114    1.00540D-13  1.01D-13  0.00D+00  1.00D+00    1.14443D+01
       115    5.53295D-14  5.53D-14  0.00D+00  1.00D+00    1.14474D+01
       116    9.95247D-14  9.95D-14  0.00D+00  1.00D+00    1.15374D+01
       117    6.06163D-14  6.06D-14  0.00D+00  1.00D+00    1.15864D+01
       118    9.98187D-14  9.98D-14  0.00D+00  1.00D+00    1.16150D+01
       119    1.22976D-13  1.23D-13  0.00D+00  1.00D+00    1.18157D+01
       120    6.69995D-14  6.70D-14  0.00D+00  1.00D+00    1.18392D+01

      Root  Residual tot.,    conf., and orb.    Bnorm      Eigenvalue
      ----------------------------------------------------------------
       121    8.82546D-14  8.83D-14  0.00D+00  1.00D+00    1.19128D+01
       122    6.73962D-14  6.74D-14  0.00D+00  1.00D+00    1.19243D+01
       123    6.32920D-14  6.33D-14  0.00D+00  1.00D+00    1.19580D+01
       124    6.07036D-14  6.07D-14  0.00D+00  1.00D+00    1.19836D+01
       125    7.04455D-14  7.04D-14  0.00D+00  1.00D+00    1.19843D+01
       126    6.83226D-14  6.83D-14  0.00D+00  1.00D+00    1.20077D+01
       127    3.79661D-13  3.80D-13  0.00D+00  1.00D+00    1.20475D+01
       128    7.81220D-14  7.81D-14  0.00D+00  1.00D+00    1.20477D+01
       129    8.46841D-14  8.47D-14  0.00D+00  1.00D+00    1.20619D+01
       130    5.50045D-14  5.50D-14  0.00D+00  1.00D+00    1.20959D+01
       131    5.85859D-14  5.86D-14  0.00D+00  1.00D+00    1.21030D+01
       132    6.18052D-14  6.18D-14  0.00D+00  1.00D+00    1.21052D+01
       133    5.77277D-14  5.77D-14  0.00D+00  1.00D+00    1.21909D+01
       134    6.18774D-14  6.19D-14  0.00D+00  1.00D+00    1.22139D+01
       135    6.29628D-14  6.30D-14  0.00D+00  1.00D+00    1.22207D+01
       136    1.34694D-13  1.35D-13  0.00D+00  1.00D+00    1.22478D+01
       137    7.10923D-14  7.11D-14  0.00D+00  1.00D+00    1.23050D+01
       138    1.08340D-13  1.08D-13  0.00D+00  1.00D+00    1.23280D+01
       139    9.53783D-14  9.54D-14  0.00D+00  1.00D+00    1.24221D+01
       140    7.63406D-14  7.63D-14  0.00D+00  1.00D+00    1.24658D+01
       141    7.81514D-14  7.82D-14  0.00D+00  1.00D+00    1.25037D+01
       142    8.26932D-14  8.27D-14  0.00D+00  1.00D+00    1.25410D+01
       143    1.10992D-13  1.11D-13  0.00D+00  1.00D+00    1.25990D+01
       144    9.65738D-14  9.66D-14  0.00D+00  1.00D+00    1.26072D+01
       145    9.18639D-14  9.19D-14  0.00D+00  1.00D+00    1.26229D+01
       146    7.31667D-14  7.32D-14  0.00D+00  1.00D+00    1.26435D+01
       147    5.75166D-14  5.75D-14  0.00D+00  1.00D+00    1.26805D+01
       148    9.21653D-14  9.22D-14  0.00D+00  1.00D+00    1.27189D+01
       149    7.50844D-14  7.51D-14  0.00D+00  1.00D+00    1.27624D+01
       150    5.56906D-14  5.57D-14  0.00D+00  1.00D+00    1.27755D+01
       151    8.46546D-14  8.47D-14  0.00D+00  1.00D+00    1.28204D+01
       152    4.97101D-14  4.97D-14  0.00D+00  1.00D+00    1.28319D+01
       153    9.97534D-14  9.98D-14  0.00D+00  1.00D+00    1.28862D+01
       154    4.99215D-14  4.99D-14  0.00D+00  1.00D+00    1.28891D+01
       155    9.12123D-14  9.12D-14  0.00D+00  1.00D+00    1.29102D+01
       156    7.99776D-14  8.00D-14  0.00D+00  1.00D+00    1.29447D+01
       157    6.96337D-14  6.96D-14  0.00D+00  1.00D+00    1.29893D+01
       158    7.09065D-14  7.09D-14  0.00D+00  1.00D+00    1.30565D+01
       159    7.18680D-14  7.19D-14  0.00D+00  1.00D+00    1.30625D+01
       160    8.75064D-14  8.75D-14  0.00D+00  1.00D+00    1.31758D+01
       161    8.29917D-14  8.30D-14  0.00D+00  1.00D+00    1.31929D+01
       162    8.03300D-14  8.03D-14  0.00D+00  1.00D+00    1.32078D+01
       163    7.28085D-14  7.28D-14  0.00D+00  1.00D+00    1.32884D+01
       164    8.10686D-14  8.11D-14  0.00D+00  1.00D+00    1.32939D+01
       165    6.81059D-14  6.81D-14  0.00D+00  1.00D+00    1.33753D+01
       166    7.82627D-14  7.83D-14  0.00D+00  1.00D+00    1.34091D+01
       167    6.86612D-14  6.87D-14  0.00D+00  1.00D+00    1.34325D+01
       168    9.21171D-14  9.21D-14  0.00D+00  1.00D+00    1.35356D+01
       169    1.42829D-13  1.43D-13  0.00D+00  1.00D+00    1.35431D+01
       170    5.30159D-14  5.30D-14  0.00D+00  1.00D+00    1.36442D+01
       171    5.11775D-14  5.12D-14  0.00D+00  1.00D+00    1.36977D+01
       172    4.93746D-14  4.94D-14  0.00D+00  1.00D+00    1.37555D+01
       173    9.47639D-14  9.48D-14  0.00D+00  1.00D+00    1.38699D+01
       174    7.34288D-14  7.34D-14  0.00D+00  1.00D+00    1.39784D+01
       175    1.73310D-13  1.73D-13  0.00D+00  1.00D+00    2.34669D+01
       176    1.34778D-13  1.35D-13  0.00D+00  1.00D+00    2.37274D+01
       177    9.94232D-13  9.94D-13  0.00D+00  1.00D+00    2.37595D+01
       178    1.49847D-13  1.50D-13  0.00D+00  1.00D+00    2.42794D+01
       179    1.58345D-13  1.58D-13  0.00D+00  1.00D+00    2.42951D+01
       180    1.24579D-13  1.25D-13  0.00D+00  1.00D+00    2.43458D+01
       181    1.78881D-13  1.79D-13  0.00D+00  1.00D+00    2.43535D+01
       182    1.14229D-13  1.14D-13  0.00D+00  1.00D+00    2.45383D+01
       183    2.45788D-13  2.46D-13  0.00D+00  1.00D+00    2.45574D+01
       184    1.72998D-13  1.73D-13  0.00D+00  1.00D+00    2.49224D+01
       185    2.92664D-13  2.93D-13  0.00D+00  1.00D+00    2.49400D+01
       186    1.45779D-13  1.46D-13  0.00D+00  1.00D+00    2.51684D+01
       187    1.09656D-13  1.10D-13  0.00D+00  1.00D+00    2.51811D+01
       188    1.37631D-13  1.38D-13  0.00D+00  1.00D+00    2.52338D+01
       189    1.00235D-13  1.00D-13  0.00D+00  1.00D+00    2.52590D+01
       190    1.98001D-13  1.98D-13  0.00D+00  1.00D+00    2.53595D+01
       191    1.17830D-13  1.18D-13  0.00D+00  1.00D+00    2.53933D+01
       192    1.28466D-13  1.28D-13  0.00D+00  1.00D+00    2.57636D+01
       193    8.21308D-14  8.21D-14  0.00D+00  1.00D+00    2.58343D+01
       194    1.12394D-13  1.12D-13  0.00D+00  1.00D+00    2.58990D+01
       195    9.40515D-14  9.41D-14  0.00D+00  1.00D+00    2.62229D+01
       196    2.12510D-14  2.13D-14  0.00D+00  1.00D+00   -5.74119D-01

 *** THE REQUESTED  195 SOLUTION VECTORS CONVERGED

 Convergence of RSP solution vectors, threshold = 1.00D-03
 ---------------------------------------------------------------
 (dimension of paired reduced space:  390)
 RSP solution vector no.    1; norm of residual   2.20D-14
 RSP solution vector no.    2; norm of residual   2.24D-14
 RSP solution vector no.    3; norm of residual   3.16D-14
 RSP solution vector no.    4; norm of residual   2.31D-14
 RSP solution vector no.    5; norm of residual   2.11D-14
 RSP solution vector no.    6; norm of residual   2.70D-14
 RSP solution vector no.    7; norm of residual   2.52D-14
 RSP solution vector no.    8; norm of residual   2.41D-14
 RSP solution vector no.    9; norm of residual   2.15D-14
 RSP solution vector no.   10; norm of residual   2.30D-14
 RSP solution vector no.   11; norm of residual   3.01D-14
 RSP solution vector no.   12; norm of residual   2.44D-14
 RSP solution vector no.   13; norm of residual   2.93D-14
 RSP solution vector no.   14; norm of residual   1.96D-14
 RSP solution vector no.   15; norm of residual   2.22D-14
 RSP solution vector no.   16; norm of residual   2.14D-14
 RSP solution vector no.   17; norm of residual   1.94D-14
 RSP solution vector no.   18; norm of residual   1.95D-14
 RSP solution vector no.   19; norm of residual   1.71D-14
 RSP solution vector no.   20; norm of residual   2.19D-14
 RSP solution vector no.   21; norm of residual   2.00D-14
 RSP solution vector no.   22; norm of residual   1.90D-14
 RSP solution vector no.   23; norm of residual   2.10D-14
 RSP solution vector no.   24; norm of residual   2.44D-14
 RSP solution vector no.   25; norm of residual   2.44D-14
 RSP solution vector no.   26; norm of residual   3.00D-14
 RSP solution vector no.   27; norm of residual   2.02D-14
 RSP solution vector no.   28; norm of residual   1.66D-14
 RSP solution vector no.   29; norm of residual   2.76D-14
 RSP solution vector no.   30; norm of residual   1.92D-14
 RSP solution vector no.   31; norm of residual   2.64D-14
 RSP solution vector no.   32; norm of residual   2.35D-14
 RSP solution vector no.   33; norm of residual   2.17D-14
 RSP solution vector no.   34; norm of residual   2.22D-14
 RSP solution vector no.   35; norm of residual   1.80D-14
 RSP solution vector no.   36; norm of residual   2.43D-14
 RSP solution vector no.   37; norm of residual   1.77D-14
 RSP solution vector no.   38; norm of residual   2.58D-14
 RSP solution vector no.   39; norm of residual   1.96D-14
 RSP solution vector no.   40; norm of residual   2.10D-14
 RSP solution vector no.   41; norm of residual   2.86D-14
 RSP solution vector no.   42; norm of residual   2.54D-14
 RSP solution vector no.   43; norm of residual   2.06D-14
 RSP solution vector no.   44; norm of residual   1.79D-14
 RSP solution vector no.   45; norm of residual   1.98D-14
 RSP solution vector no.   46; norm of residual   1.85D-14
 RSP solution vector no.   47; norm of residual   2.98D-14
 RSP solution vector no.   48; norm of residual   1.96D-14
 RSP solution vector no.   49; norm of residual   2.06D-14
 RSP solution vector no.   50; norm of residual   1.78D-14
 RSP solution vector no.   51; norm of residual   2.68D-14
 RSP solution vector no.   52; norm of residual   2.08D-14
 RSP solution vector no.   53; norm of residual   2.30D-14
 RSP solution vector no.   54; norm of residual   2.09D-14
 RSP solution vector no.   55; norm of residual   2.29D-14
 RSP solution vector no.   56; norm of residual   2.23D-14
 RSP solution vector no.   57; norm of residual   2.06D-14
 RSP solution vector no.   58; norm of residual   2.89D-14
 RSP solution vector no.   59; norm of residual   1.89D-14
 RSP solution vector no.   60; norm of residual   1.84D-14
 RSP solution vector no.   61; norm of residual   2.22D-14
 RSP solution vector no.   62; norm of residual   2.32D-14
 RSP solution vector no.   63; norm of residual   2.17D-14
 RSP solution vector no.   64; norm of residual   2.49D-14
 RSP solution vector no.   65; norm of residual   2.33D-14
 RSP solution vector no.   66; norm of residual   2.35D-14
 RSP solution vector no.   67; norm of residual   2.46D-14
 RSP solution vector no.   68; norm of residual   1.96D-14
 RSP solution vector no.   69; norm of residual   2.18D-14
 RSP solution vector no.   70; norm of residual   3.04D-14
 RSP solution vector no.   71; norm of residual   2.89D-14
 RSP solution vector no.   72; norm of residual   2.27D-14
 RSP solution vector no.   73; norm of residual   2.42D-14
 RSP solution vector no.   74; norm of residual   2.44D-14
 RSP solution vector no.   75; norm of residual   2.10D-14
 RSP solution vector no.   76; norm of residual   3.02D-14
 RSP solution vector no.   77; norm of residual   2.86D-14
 RSP solution vector no.   78; norm of residual   3.34D-14
 RSP solution vector no.   79; norm of residual   4.02D-14
 RSP solution vector no.   80; norm of residual   2.34D-14
 RSP solution vector no.   81; norm of residual   2.51D-14
 RSP solution vector no.   82; norm of residual   2.55D-14
 RSP solution vector no.   83; norm of residual   2.62D-14
 RSP solution vector no.   84; norm of residual   2.63D-14
 RSP solution vector no.   85; norm of residual   3.06D-14
 RSP solution vector no.   86; norm of residual   2.84D-14
 RSP solution vector no.   87; norm of residual   3.11D-14
 RSP solution vector no.   88; norm of residual   2.53D-14
 RSP solution vector no.   89; norm of residual   3.64D-14
 RSP solution vector no.   90; norm of residual   2.69D-14
 RSP solution vector no.   91; norm of residual   3.61D-14
 RSP solution vector no.   92; norm of residual   2.68D-14
 RSP solution vector no.   93; norm of residual   3.39D-14
 RSP solution vector no.   94; norm of residual   3.04D-14
 RSP solution vector no.   95; norm of residual   3.03D-14
 RSP solution vector no.   96; norm of residual   3.14D-14
 RSP solution vector no.   97; norm of residual   3.32D-14
 RSP solution vector no.   98; norm of residual   3.83D-14
 RSP solution vector no.   99; norm of residual   4.45D-14
 RSP solution vector no.  100; norm of residual   2.68D-14
 RSP solution vector no.  101; norm of residual   5.62D-14
 RSP solution vector no.  102; norm of residual   4.12D-14
 RSP solution vector no.  103; norm of residual   3.37D-14
 RSP solution vector no.  104; norm of residual   4.52D-14
 RSP solution vector no.  105; norm of residual   7.09D-14
 RSP solution vector no.  106; norm of residual   4.31D-14
 RSP solution vector no.  107; norm of residual   1.23D-13
 RSP solution vector no.  108; norm of residual   9.38D-14
 RSP solution vector no.  109; norm of residual   4.78D-14
 RSP solution vector no.  110; norm of residual   1.08D-13
 RSP solution vector no.  111; norm of residual   8.57D-14
 RSP solution vector no.  112; norm of residual   8.73D-14
 RSP solution vector no.  113; norm of residual   5.22D-14
 RSP solution vector no.  114; norm of residual   1.01D-13
 RSP solution vector no.  115; norm of residual   5.53D-14
 RSP solution vector no.  116; norm of residual   9.95D-14
 RSP solution vector no.  117; norm of residual   6.06D-14
 RSP solution vector no.  118; norm of residual   9.98D-14
 RSP solution vector no.  119; norm of residual   1.23D-13
 RSP solution vector no.  120; norm of residual   6.70D-14
 RSP solution vector no.  121; norm of residual   8.83D-14
 RSP solution vector no.  122; norm of residual   6.74D-14
 RSP solution vector no.  123; norm of residual   6.33D-14
 RSP solution vector no.  124; norm of residual   6.07D-14
 RSP solution vector no.  125; norm of residual   7.04D-14
 RSP solution vector no.  126; norm of residual   6.83D-14
 RSP solution vector no.  127; norm of residual   3.80D-13
 RSP solution vector no.  128; norm of residual   7.81D-14
 RSP solution vector no.  129; norm of residual   8.47D-14
 RSP solution vector no.  130; norm of residual   5.50D-14
 RSP solution vector no.  131; norm of residual   5.86D-14
 RSP solution vector no.  132; norm of residual   6.18D-14
 RSP solution vector no.  133; norm of residual   5.77D-14
 RSP solution vector no.  134; norm of residual   6.19D-14
 RSP solution vector no.  135; norm of residual   6.30D-14
 RSP solution vector no.  136; norm of residual   1.35D-13
 RSP solution vector no.  137; norm of residual   7.11D-14
 RSP solution vector no.  138; norm of residual   1.08D-13
 RSP solution vector no.  139; norm of residual   9.54D-14
 RSP solution vector no.  140; norm of residual   7.63D-14
 RSP solution vector no.  141; norm of residual   7.82D-14
 RSP solution vector no.  142; norm of residual   8.27D-14
 RSP solution vector no.  143; norm of residual   1.11D-13
 RSP solution vector no.  144; norm of residual   9.66D-14
 RSP solution vector no.  145; norm of residual   9.19D-14
 RSP solution vector no.  146; norm of residual   7.32D-14
 RSP solution vector no.  147; norm of residual   5.75D-14
 RSP solution vector no.  148; norm of residual   9.22D-14
 RSP solution vector no.  149; norm of residual   7.51D-14
 RSP solution vector no.  150; norm of residual   5.57D-14
 RSP solution vector no.  151; norm of residual   8.47D-14
 RSP solution vector no.  152; norm of residual   4.97D-14
 RSP solution vector no.  153; norm of residual   9.98D-14
 RSP solution vector no.  154; norm of residual   4.99D-14
 RSP solution vector no.  155; norm of residual   9.12D-14
 RSP solution vector no.  156; norm of residual   8.00D-14
 RSP solution vector no.  157; norm of residual   6.96D-14
 RSP solution vector no.  158; norm of residual   7.09D-14
 RSP solution vector no.  159; norm of residual   7.19D-14
 RSP solution vector no.  160; norm of residual   8.75D-14
 RSP solution vector no.  161; norm of residual   8.30D-14
 RSP solution vector no.  162; norm of residual   8.03D-14
 RSP solution vector no.  163; norm of residual   7.28D-14
 RSP solution vector no.  164; norm of residual   8.11D-14
 RSP solution vector no.  165; norm of residual   6.81D-14
 RSP solution vector no.  166; norm of residual   7.83D-14
 RSP solution vector no.  167; norm of residual   6.87D-14
 RSP solution vector no.  168; norm of residual   9.21D-14
 RSP solution vector no.  169; norm of residual   1.43D-13
 RSP solution vector no.  170; norm of residual   5.30D-14
 RSP solution vector no.  171; norm of residual   5.12D-14
 RSP solution vector no.  172; norm of residual   4.94D-14
 RSP solution vector no.  173; norm of residual   9.48D-14
 RSP solution vector no.  174; norm of residual   7.34D-14
 RSP solution vector no.  175; norm of residual   1.73D-13
 RSP solution vector no.  176; norm of residual   1.35D-13
 RSP solution vector no.  177; norm of residual   9.94D-13
 RSP solution vector no.  178; norm of residual   1.50D-13
 RSP solution vector no.  179; norm of residual   1.58D-13
 RSP solution vector no.  180; norm of residual   1.25D-13
 RSP solution vector no.  181; norm of residual   1.79D-13
 RSP solution vector no.  182; norm of residual   1.14D-13
 RSP solution vector no.  183; norm of residual   2.46D-13
 RSP solution vector no.  184; norm of residual   1.73D-13
 RSP solution vector no.  185; norm of residual   2.93D-13
 RSP solution vector no.  186; norm of residual   1.46D-13
 RSP solution vector no.  187; norm of residual   1.10D-13
 RSP solution vector no.  188; norm of residual   1.38D-13
 RSP solution vector no.  189; norm of residual   1.00D-13
 RSP solution vector no.  190; norm of residual   1.98D-13
 RSP solution vector no.  191; norm of residual   1.18D-13
 RSP solution vector no.  192; norm of residual   1.28D-13
 RSP solution vector no.  193; norm of residual   8.21D-14
 RSP solution vector no.  194; norm of residual   1.12D-13
 RSP solution vector no.  195; norm of residual   9.41D-14

 *** RSPCTL MICROITERATIONS CONVERGED

@ Singlet transition operator label: XDIPLEN 
@ STATE NO:    1 *TRANSITION MOMENT: -1.71604949E-15 *ENERGY(eV):   15.622561    
@ STATE NO:    2 *TRANSITION MOMENT:  2.69454112E-15 *ENERGY(eV):   16.403404    
@ STATE NO:    3 *TRANSITION MOMENT: -0.30125644     *ENERGY(eV):   18.440266    
@ STATE NO:    4 *TRANSITION MOMENT: -1.05471091E-15 *ENERGY(eV):   19.969720    
@ STATE NO:    5 *TRANSITION MOMENT: -1.63764469E-14 *ENERGY(eV):   28.742917    
@ STATE NO:    6 *TRANSITION MOMENT:  0.64127280     *ENERGY(eV):   30.568551    
@ STATE NO:    7 *TRANSITION MOMENT:  0.62657515     *ENERGY(eV):   32.200047    
@ STATE NO:    8 *TRANSITION MOMENT:  3.63908698E-15 *ENERGY(eV):   33.745527    
@ STATE NO:    9 *TRANSITION MOMENT: -5.57977653E-15 *ENERGY(eV):   34.443328    
@ STATE NO:   10 *TRANSITION MOMENT: -7.32331176E-15 *ENERGY(eV):   34.752757    
@ STATE NO:   11 *TRANSITION MOMENT:  0.24295833     *ENERGY(eV):   35.301125    
@ STATE NO:   12 *TRANSITION MOMENT: -7.61752915E-15 *ENERGY(eV):   37.059039    
@ STATE NO:   13 *TRANSITION MOMENT: -0.16306754     *ENERGY(eV):   38.435380    
@ STATE NO:   14 *TRANSITION MOMENT:  5.04405318E-14 *ENERGY(eV):   38.506164    
@ STATE NO:   15 *TRANSITION MOMENT: -0.10243579     *ENERGY(eV):   39.129252    

@ Singlet transition operator label: YDIPLEN 
@ STATE NO:    1 *TRANSITION MOMENT: -1.44593473E-14 *ENERGY(eV):   15.622561    
@ STATE NO:    2 *TRANSITION MOMENT: -2.34782904E-14 *ENERGY(eV):   16.403404    
@ STATE NO:    3 *TRANSITION MOMENT: -1.42446926E-14 *ENERGY(eV):   18.440266    
@ STATE NO:    4 *TRANSITION MOMENT: -0.77416377     *ENERGY(eV):   19.969720    
@ STATE NO:    5 *TRANSITION MOMENT:  -1.2532195     *ENERGY(eV):   28.742917    
@ STATE NO:    6 *TRANSITION MOMENT: -3.23048952E-14 *ENERGY(eV):   30.568551    
@ STATE NO:    7 *TRANSITION MOMENT: -3.81590254E-14 *ENERGY(eV):   32.200047    
@ STATE NO:    8 *TRANSITION MOMENT: -0.27286052     *ENERGY(eV):   33.745527    
@ STATE NO:    9 *TRANSITION MOMENT:  2.98062283E-15 *ENERGY(eV):   34.443328    
@ STATE NO:   10 *TRANSITION MOMENT:  1.86207712E-14 *ENERGY(eV):   34.752757    
@ STATE NO:   11 *TRANSITION MOMENT:  2.70313550E-14 *ENERGY(eV):   35.301125    
@ STATE NO:   12 *TRANSITION MOMENT:  0.27879298     *ENERGY(eV):   37.059039    
@ STATE NO:   13 *TRANSITION MOMENT: -1.56043091E-14 *ENERGY(eV):   38.435380    
@ STATE NO:   14 *TRANSITION MOMENT: -2.59309498E-15 *ENERGY(eV):   38.506164    
@ STATE NO:   15 *TRANSITION MOMENT: -1.33029543E-14 *ENERGY(eV):   39.129252    

@ Singlet transition operator label: ZDIPLEN 
@ STATE NO:    1 *TRANSITION MOMENT: -9.32011038E-15 *ENERGY(eV):   15.622561    
@ STATE NO:    2 *TRANSITION MOMENT: -0.44376697     *ENERGY(eV):   16.403404    
@ STATE NO:    3 *TRANSITION MOMENT: -8.54302701E-15 *ENERGY(eV):   18.440266    
@ STATE NO:    4 *TRANSITION MOMENT:  1.68548842E-14 *ENERGY(eV):   19.969720    
@ STATE NO:    5 *TRANSITION MOMENT: -1.63528996E-15 *ENERGY(eV):   28.742917    
@ STATE NO:    6 *TRANSITION MOMENT:  1.26775627E-15 *ENERGY(eV):   30.568551    
@ STATE NO:    7 *TRANSITION MOMENT: -1.21980828E-15 *ENERGY(eV):   32.200047    
@ STATE NO:    8 *TRANSITION MOMENT: -2.23716119E-15 *ENERGY(eV):   33.745527    
@ STATE NO:    9 *TRANSITION MOMENT: -1.05237693E-15 *ENERGY(eV):   34.443328    
@ STATE NO:   10 *TRANSITION MOMENT: -5.55919099E-02 *ENERGY(eV):   34.752757    
@ STATE NO:   11 *TRANSITION MOMENT:  3.37231159E-16 *ENERGY(eV):   35.301125    
@ STATE NO:   12 *TRANSITION MOMENT:  5.71488952E-15 *ENERGY(eV):   37.059039    
@ STATE NO:   13 *TRANSITION MOMENT: -3.23221775E-16 *ENERGY(eV):   38.435380    
@ STATE NO:   14 *TRANSITION MOMENT:  4.54583377E-15 *ENERGY(eV):   38.506164    
@ STATE NO:   15 *TRANSITION MOMENT:  1.52822664E-15 *ENERGY(eV):   39.129252    


 **************************************************************************************
 *** @ Excit. operator sym 1 & ref. state sym 1 => excited state symmetry 1  ( A  ) ***
 **************************************************************************************



 @ Excited state no:    1 in symmetry 1  ( A  ) - singlet excitation
 -------------------------------------------------------------------

@ Excitation energy :  0.57411857     au
@                       15.622561     eV;   126004.46     cm-1;   1507.3481     kJ / mol

@ Total energy :       -36.799692     au

@ Operator label: XDIPLEN ; Transition moment : -1.71604949E-15 au
@ Oscillator strength (LENGTH)   :  1.12711947E-30  (X-polarization)

@ Operator label: YDIPLEN ; Transition moment : -1.44593473E-14 au
@ Oscillator strength (LENGTH)   :  8.00216882E-29  (Y-polarization)

@ Operator label: ZDIPLEN ; Transition moment : -9.32011038E-15 au
@ Oscillator strength (LENGTH)   :  3.32469986E-29  (Z-polarization)
@ Total oscillator strength (LENGTH)   :  1.14395806E-28

 Eigenvector for state no.  1

      Index(conf)                         Z operator          Y operator
      ----------                      --------------      --------------
          23                            0.9691966730        0.0000000000
          70                           -0.1019851469        0.0000000000
         127                            0.1376430593        0.0000000000
         131                           -0.1570380187        0.0000000000

      192 elements with absolute value ≤ 1.00D-01 are not printed.

 Printout of coefficients in interval  3.1623E-01 to  1.0000E+00
 ===============================================================

  Coefficient of CSF no.        23 is      0.96919667    9.69196673E-01
  Orbital          1   2   3   4   5   7
  Spin coupling    2   2   2   2   1  -1

 Printout of coefficients in interval  1.0000E-01 to  3.1623E-01
 ===============================================================

  Coefficient of CSF no.        70 is     -0.10198515   -1.01985147E-01
  Orbital          1   2   4   7   3   5
  Spin coupling    2   2   2   2   1  -1

  Coefficient of CSF no.       127 is      0.13764306    1.37643059E-01
  Orbital          1   2   3   4   5   6   7
  Spin coupling    2   2   2   1   1  -1  -1

  Coefficient of CSF no.       131 is     -0.15703802   -1.57038019E-01
  Orbital          1   3   4   2   5   6   7
  Spin coupling    2   2   2   1   1  -1  -1

 Printout of coefficients in interval  1.0000E-01 to  1.0000E-01
 ===============================================================
   ( no coefficients )

 Norm of printed CI vector ..      0.99334971

 Magnitude of CI coefficients
 ============================
 ( Ranges are relative to norm of vector :  1.00E+00 )

  10- 1 to 10- 0         4    0.99334971E+00      0.9933497123
  10- 2 to 10- 1         8    0.64969341E-02      0.9998466464
  10- 3 to 10- 2         9    0.15143350E-03      0.9999980799
  10- 4 to 10- 3         9    0.19008330E-05      0.9999999807
  10- 5 to 10- 4         4    0.19262504E-07      1.0000000000
  Number of coefficients less than 10^-11 times norm is          162


 @ Excited state no:    2 in symmetry 1  ( A  ) - singlet excitation
 -------------------------------------------------------------------

@ Excitation energy :  0.60281401     au
@                       16.403404     eV;   132302.38     cm-1;   1582.6879     kJ / mol

@ Total energy :       -36.770997     au

@ Operator label: XDIPLEN ; Transition moment :  2.69454112E-15 au
@ Oscillator strength (LENGTH)   :  2.91784159E-30  (X-polarization)

@ Operator label: YDIPLEN ; Transition moment : -2.34782904E-14 au
@ Oscillator strength (LENGTH)   :  2.21526160E-28  (Y-polarization)

@ Operator label: ZDIPLEN ; Transition moment : -0.44376697     au
@ Oscillator strength (LENGTH)   :  7.91410899E-02  (Z-polarization)
@ Total oscillator strength (LENGTH)   :  7.91410899E-02

 Eigenvector for state no.  2

      Index(conf)                         Z operator          Y operator
      ----------                      --------------      --------------
          22                            0.9712530607        0.0000000000
          37                            0.1166892397        0.0000000000
         129                            0.1766288930        0.0000000000

      193 elements with absolute value ≤ 1.00D-01 are not printed.

 Printout of coefficients in interval  3.1623E-01 to  1.0000E+00
 ===============================================================

  Coefficient of CSF no.        22 is      0.97125306    9.71253061E-01
  Orbital          1   2   3   4   5   6
  Spin coupling    2   2   2   2   1  -1

 Printout of coefficients in interval  1.0000E-01 to  3.1623E-01
 ===============================================================

  Coefficient of CSF no.        37 is      0.11668924    1.16689240E-01
  Orbital          1   2   3   6   4   5
  Spin coupling    2   2   2   2   1  -1

  Coefficient of CSF no.       129 is      0.17662889    1.76628893E-01
  Orbital          1   2   4   3   5   6   7
  Spin coupling    2   2   2   1   1  -1  -1

 Printout of coefficients in interval  1.0000E-01 to  1.0000E-01
 ===============================================================
   ( no coefficients )

 Norm of printed CI vector ..      0.98814665

 Magnitude of CI coefficients
 ============================
 ( Ranges are relative to norm of vector :  1.00E+00 )

  10- 1 to 10- 0         3    0.98814665E+00      0.9881466524
  10- 2 to 10- 1         9    0.11574985E-01      0.9997216372
  10- 3 to 10- 2        12    0.27743630E-03      0.9999990735
  10- 4 to 10- 3         5    0.91425028E-06      0.9999999877
  10- 5 to 10- 4         5    0.12250051E-07      1.0000000000
  10- 6 to 10- 5         2    0.27403120E-10      1.0000000000
  Number of coefficients less than 10^-11 times norm is          160


 @ Excited state no:    3 in symmetry 1  ( A  ) - singlet excitation
 -------------------------------------------------------------------

@ Excitation energy :  0.67766734     au
@                       18.440266     eV;   148730.79     cm-1;   1779.2153     kJ / mol

@ Total energy :       -36.696143     au

@ Operator label: XDIPLEN ; Transition moment : -0.30125644     au
@ Oscillator strength (LENGTH)   :  4.10013323E-02  (X-polarization)

@ Operator label: YDIPLEN ; Transition moment : -1.42446926E-14 au
@ Oscillator strength (LENGTH)   :  9.16708919E-29  (Y-polarization)

@ Operator label: ZDIPLEN ; Transition moment : -8.54302701E-15 au
@ Oscillator strength (LENGTH)   :  3.29722705E-29  (Z-polarization)
@ Total oscillator strength (LENGTH)   :  4.10013323E-02

 Eigenvector for state no.  3

      Index(conf)                         Z operator          Y operator
      ----------                      --------------      --------------
           1                           -0.1159267965        0.0000000000
           3                            0.1059808993        0.0000000000
          25                           -0.9538857849        0.0000000000
          52                            0.1240988249        0.0000000000
         135                           -0.1370004833        0.0000000000

      191 elements with absolute value ≤ 1.00D-01 are not printed.

 Printout of coefficients in interval  3.1623E-01 to  1.0000E+00
 ===============================================================

  Coefficient of CSF no.        25 is     -0.95388578   -9.53885785E-01
  Orbital          1   2   3   5   4   6
  Spin coupling    2   2   2   2   1  -1

 Printout of coefficients in interval  1.0000E-01 to  3.1623E-01
 ===============================================================

  Coefficient of CSF no.         1 is     -0.11592680   -1.15926796E-01
  Orbital          1   2   3   4   5
  Spin coupling    2   2   2   2   2

  Coefficient of CSF no.         3 is      0.10598090    1.05980899E-01
  Orbital          1   2   3   5   6
  Spin coupling    2   2   2   2   2

  Coefficient of CSF no.        52 is      0.12409882    1.24098825E-01
  Orbital          1   3   5   6   2   4
  Spin coupling    2   2   2   2   1  -1

  Coefficient of CSF no.       135 is     -0.13700048   -1.37000483E-01
  Orbital          1   2   5   3   4   6   7
  Spin coupling    2   2   2   1   1  -1  -1

 Printout of coefficients in interval  1.0000E-01 to  1.0000E-01
 ===============================================================
   ( no coefficients )

 Norm of printed CI vector ..      0.96873871

 Magnitude of CI coefficients
 ============================
 ( Ranges are relative to norm of vector :  1.00E+00 )

  10- 1 to 10- 0         5    0.96873871E+00      0.9687387146
  10- 2 to 10- 1        15    0.30773899E-01      0.9995126133
  10- 3 to 10- 2        16    0.48118754E-03      0.9999938009
  10- 4 to 10- 3        27    0.61792607E-05      0.9999999801
  10- 5 to 10- 4         7    0.19853407E-07      1.0000000000
  Number of coefficients less than 10^-11 times norm is          126


 @ Excited state no:    4 in symmetry 1  ( A  ) - singlet excitation
 -------------------------------------------------------------------

@ Excitation energy :  0.73387374     au
@                       19.969720     eV;   161066.67     cm-1;   1926.7852     kJ / mol

@ Total energy :       -36.639937     au

@ Operator label: XDIPLEN ; Transition moment : -1.05471091E-15 au
@ Oscillator strength (LENGTH)   :  5.44248155E-31  (X-polarization)

@ Operator label: YDIPLEN ; Transition moment : -0.77416377     au
@ Oscillator strength (LENGTH)   :  0.29322148      (Y-polarization)

@ Operator label: ZDIPLEN ; Transition moment :  1.68548842E-14 au
@ Oscillator strength (LENGTH)   :  1.38989386E-28  (Z-polarization)
@ Total oscillator strength (LENGTH)   :  0.29322148    

 Eigenvector for state no.  4

      Index(conf)                         Z operator          Y operator
      ----------                      --------------      --------------
          26                            0.9666571196        0.0000000000
          28                            0.1172223861        0.0000000000
          79                           -0.1070757540        0.0000000000
         137                           -0.1460436005        0.0000000000

      192 elements with absolute value ≤ 1.00D-01 are not printed.

 Printout of coefficients in interval  3.1623E-01 to  1.0000E+00
 ===============================================================

  Coefficient of CSF no.        26 is      0.96665712    9.66657120E-01
  Orbital          1   2   3   5   4   7
  Spin coupling    2   2   2   2   1  -1

 Printout of coefficients in interval  1.0000E-01 to  3.1623E-01
 ===============================================================

  Coefficient of CSF no.        28 is      0.11722239    1.17222386E-01
  Orbital          1   2   4   5   3   6
  Spin coupling    2   2   2   2   1  -1

  Coefficient of CSF no.        79 is     -0.10707575   -1.07075754E-01
  Orbital          1   2   5   7   3   4
  Spin coupling    2   2   2   2   1  -1

  Coefficient of CSF no.       137 is     -0.14604360   -1.46043601E-01
  Orbital          1   3   5   2   4   6   7
  Spin coupling    2   2   2   1   1  -1  -1

 Printout of coefficients in interval  1.0000E-01 to  1.0000E-01
 ===============================================================
   ( no coefficients )

 Norm of printed CI vector ..      0.98096103

 Magnitude of CI coefficients
 ============================
 ( Ranges are relative to norm of vector :  1.00E+00 )

[...]
  Orbital          2   3   5   6   7
  Spin coupling    2   2   2   2   2

  Coefficient of CSF no.       123 is      0.53429165    5.34291651E-01
  Orbital          3   5   6   7   2   4
  Spin coupling    2   2   2   2   1  -1

 Printout of coefficients in interval  1.0000E-01 to  3.1623E-01
 ===============================================================

  Coefficient of CSF no.        15 is      0.16628103    1.66281028E-01
  Orbital          2   3   4   6   7
  Spin coupling    2   2   2   2   2

  Coefficient of CSF no.        20 is     -0.16776300   -1.67763004E-01
  Orbital          2   4   5   6   7
  Spin coupling    2   2   2   2   2

  Coefficient of CSF no.        87 is     -0.16126898   -1.61268982E-01
  Orbital          2   3   5   7   4   6
  Spin coupling    2   2   2   2   1  -1

  Coefficient of CSF no.        96 is      0.11073777    1.10737768E-01
  Orbital          3   4   5   7   2   6
  Spin coupling    2   2   2   2   1  -1

 Norm of printed CI vector ..      0.99043928

 Magnitude of CI coefficients
 ============================
 ( Ranges are relative to norm of vector :  1.00E+00 )

  10- 1 to 10- 0         6    0.99043928E+00      0.9904392752
  10- 2 to 10- 1         6    0.93667629E-02      0.9998060381
  10- 3 to 10- 2        15    0.18806352E-03      0.9999941016
  10- 4 to 10- 3        31    0.58373837E-05      0.9999999390
  10- 5 to 10- 4        11    0.61028201E-07      1.0000000000
  10- 6 to 10- 5         1    0.87558720E-11      1.0000000000
  Number of coefficients less than 10^-11 times norm is          126


 @ Excited state no:  190 in symmetry 1  ( A  ) - singlet excitation
 -------------------------------------------------------------------

@ Excitation energy :   25.359536     au
@                       690.06808     eV;   5565774.8     cm-1;   66581.452     kJ / mol

@ Total energy :       -12.014275     au

@ Operator label: XDIPLEN ; Transition moment : -6.80527222E-17 au
@ Oscillator strength (LENGTH)   :  7.82962659E-32  (X-polarization)

@ Operator label: YDIPLEN ; Transition moment :  3.15231096E-06 au
@ Oscillator strength (LENGTH)   :  1.67999562E-10  (Y-polarization)

@ Operator label: ZDIPLEN ; Transition moment : -1.29585931E-16 au
@ Oscillator strength (LENGTH)   :  2.83900235E-31  (Z-polarization)
@ Total oscillator strength (LENGTH)   :  1.67999562E-10

 Eigenvector for state no.190

      Index(conf)                         Z operator          Y operator
      ----------                      --------------      --------------
          57                           -0.3039779934        0.0000000000
          66                           -0.2208808992        0.0000000000
         120                            0.8541206343        0.0000000000
         126                           -0.3554310350        0.0000000000

      192 elements with absolute value ≤ 1.00D-01 are not printed.

 Printout of coefficients in interval  3.1623E-01 to  1.0000E+00
 ===============================================================

  Coefficient of CSF no.       120 is      0.85412063    8.54120634E-01
  Orbital          2   5   6   7   3   4
  Spin coupling    2   2   2   2   1  -1

  Coefficient of CSF no.       126 is     -0.35543104   -3.55431035E-01
  Orbital          4   5   6   7   2   3
  Spin coupling    2   2   2   2   1  -1

 Printout of coefficients in interval  1.0000E-01 to  3.1623E-01
 ===============================================================

  Coefficient of CSF no.        57 is     -0.30397799   -3.03977993E-01
  Orbital          2   3   5   6   4   7
  Spin coupling    2   2   2   2   1  -1

  Coefficient of CSF no.        66 is     -0.22088090   -2.20880899E-01
  Orbital          3   4   5   6   2   7
  Spin coupling    2   2   2   2   1  -1

 Printout of coefficients in interval  1.0000E-01 to  1.0000E-01
 ===============================================================
   ( no coefficients )

 Norm of printed CI vector ..      0.99704427

 Magnitude of CI coefficients
 ============================
 ( Ranges are relative to norm of vector :  1.00E+00 )

  10- 1 to 10- 0         4    0.99704427E+00      0.9970442707
  10- 2 to 10- 1         4    0.24978660E-02      0.9995421367
  10- 3 to 10- 2        20    0.45317877E-03      0.9999953155
  10- 4 to 10- 3        23    0.46790842E-05      0.9999999946
  10- 5 to 10- 4         5    0.54420308E-08      1.0000000000
  Number of coefficients less than 10^-11 times norm is          140


 @ Excited state no:  191 in symmetry 1  ( A  ) - singlet excitation
 -------------------------------------------------------------------

@ Excitation energy :   25.393336     au
@                       690.98782     eV;   5573193.0     cm-1;   66670.193     kJ / mol

@ Total energy :       -11.980475     au

@ Operator label: XDIPLEN ; Transition moment :  2.54397108E-05 au
@ Oscillator strength (LENGTH)   :  1.09560205E-08  (X-polarization)

@ Operator label: YDIPLEN ; Transition moment : -2.66958272E-17 au
@ Oscillator strength (LENGTH)   :  1.20646649E-32  (Y-polarization)

@ Operator label: ZDIPLEN ; Transition moment : -6.64410903E-18 au
@ Oscillator strength (LENGTH)   :  7.47312073E-34  (Z-polarization)
@ Total oscillator strength (LENGTH)   :  1.09560205E-08

 Eigenvector for state no.191

      Index(conf)                         Z operator          Y operator
      ----------                      --------------      --------------
           6                            0.1118887590        0.0000000000
          18                            0.1387234154        0.0000000000
          20                            0.9120409067        0.0000000000
          21                           -0.1343755943        0.0000000000
          63                            0.2630227868        0.0000000000
          96                           -0.1633721199        0.0000000000
         123                            0.1423737959        0.0000000000

      189 elements with absolute value ≤ 1.00D-01 are not printed.

 Printout of coefficients in interval  3.1623E-01 to  1.0000E+00
 ===============================================================

  Coefficient of CSF no.        20 is      0.91204091    9.12040907E-01
  Orbital          2   4   5   6   7
  Spin coupling    2   2   2   2   2

 Printout of coefficients in interval  1.0000E-01 to  3.1623E-01
 ===============================================================

  Coefficient of CSF no.         6 is      0.11188876    1.11888759E-01
  Orbital          2   3   4   5   6
  Spin coupling    2   2   2   2   2

  Coefficient of CSF no.        18 is      0.13872342    1.38723415E-01
  Orbital          2   3   5   6   7
  Spin coupling    2   2   2   2   2

  Coefficient of CSF no.        21 is     -0.13437559   -1.34375594E-01
  Orbital          3   4   5   6   7
  Spin coupling    2   2   2   2   2

  Coefficient of CSF no.        63 is      0.26302279    2.63022787E-01
  Orbital          2   4   5   6   3   7
  Spin coupling    2   2   2   2   1  -1

  Coefficient of CSF no.        96 is     -0.16337212   -1.63372120E-01
  Orbital          3   4   5   7   2   6
  Spin coupling    2   2   2   2   1  -1

  Coefficient of CSF no.       123 is      0.14237380    1.42373796E-01
  Orbital          3   5   6   7   2   4
  Spin coupling    2   2   2   2   1  -1

 Norm of printed CI vector ..      0.99778043

 Magnitude of CI coefficients
 ============================
 ( Ranges are relative to norm of vector :  1.00E+00 )

  10- 1 to 10- 0         7    0.99778043E+00      0.9977804299
  10- 2 to 10- 1         5    0.19057269E-02      0.9996861568
  10- 3 to 10- 2        18    0.30912822E-03      0.9999952850
  10- 4 to 10- 3        30    0.46765878E-05      0.9999999616
  10- 5 to 10- 4         9    0.38334928E-07      0.9999999999
  10- 6 to 10- 5         1    0.62247931E-10      1.0000000000
  Number of coefficients less than 10^-11 times norm is          126


 @ Excited state no:  192 in symmetry 1  ( A  ) - singlet excitation
 -------------------------------------------------------------------

@ Excitation energy :   25.763551     au
@                       701.06188     eV;   5654445.7     cm-1;   67642.192     kJ / mol

@ Total energy :       -11.610260     au

@ Operator label: XDIPLEN ; Transition moment : -2.23219930E-16 au
@ Oscillator strength (LENGTH)   :  8.55815981E-31  (X-polarization)

@ Operator label: YDIPLEN ; Transition moment : -9.65245075E-17 au
@ Oscillator strength (LENGTH)   :  1.60025667E-31  (Y-polarization)

@ Operator label: ZDIPLEN ; Transition moment : -1.90242408E-06 au
@ Oscillator strength (LENGTH)   :  6.21625934E-11  (Z-polarization)
@ Total oscillator strength (LENGTH)   :  6.21625934E-11

 Eigenvector for state no.192

      Index(conf)                         Z operator          Y operator
      ----------                      --------------      --------------
          78                           -0.1770759697        0.0000000000
         105                            0.3996849508        0.0000000000
         114                            0.8988008417        0.0000000000

      193 elements with absolute value ≤ 1.00D-01 are not printed.

 Printout of coefficients in interval  3.1623E-01 to  1.0000E+00
 ===============================================================

  Coefficient of CSF no.       105 is      0.39968495    3.99684951E-01
  Orbital          2   3   6   7   4   5
  Spin coupling    2   2   2   2   1  -1

  Coefficient of CSF no.       114 is      0.89880084    8.98800842E-01
  Orbital          3   4   6   7   2   5
  Spin coupling    2   2   2   2   1  -1

 Printout of coefficients in interval  1.0000E-01 to  3.1623E-01
 ===============================================================

  Coefficient of CSF no.        78 is     -0.17707597   -1.77075970E-01
  Orbital          2   3   4   7   5   6
  Spin coupling    2   2   2   2   1  -1

 Norm of printed CI vector ..      0.99894691

 Magnitude of CI coefficients
 ============================
 ( Ranges are relative to norm of vector :  1.00E+00 )

  10- 1 to 10- 0         3    0.99894691E+00      0.9989469119
  10- 2 to 10- 1         3    0.86031459E-03      0.9998072265
  10- 3 to 10- 2        11    0.18981740E-03      0.9999970439
  10- 4 to 10- 3        15    0.29380938E-05      0.9999999820
  10- 5 to 10- 4         4    0.18003488E-07      1.0000000000
  Number of coefficients less than 10^-11 times norm is          160


 @ Excited state no:  193 in symmetry 1  ( A  ) - singlet excitation
 -------------------------------------------------------------------

@ Excitation energy :   25.834292     au
@                       702.98684     eV;   5669971.6     cm-1;   67827.922     kJ / mol

@ Total energy :       -11.539519     au

@ Operator label: XDIPLEN ; Transition moment :  6.77172708E-06 au
@ Oscillator strength (LENGTH)   :  7.89776472E-10  (X-polarization)

@ Operator label: YDIPLEN ; Transition moment :  1.48354908E-17 au
@ Oscillator strength (LENGTH)   :  3.79061027E-33  (Y-polarization)

@ Operator label: ZDIPLEN ; Transition moment :  1.71119030E-18 au
@ Oscillator strength (LENGTH)   :  5.04315038E-35  (Z-polarization)
@ Total oscillator strength (LENGTH)   :  7.89776472E-10

 Eigenvector for state no.193

      Index(conf)                         Z operator          Y operator
      ----------                      --------------      --------------
          18                           -0.5088587765        0.0000000000
          21                            0.4510812357        0.0000000000
          96                            0.1378154140        0.0000000000
         123                            0.7087416101        0.0000000000

      192 elements with absolute value ≤ 1.00D-01 are not printed.

 Printout of coefficients in interval  3.1623E-01 to  1.0000E+00
 ===============================================================

  Coefficient of CSF no.        18 is     -0.50885878   -5.08858777E-01
  Orbital          2   3   5   6   7
  Spin coupling    2   2   2   2   2

  Coefficient of CSF no.        21 is      0.45108124    4.51081236E-01
  Orbital          3   4   5   6   7
  Spin coupling    2   2   2   2   2

  Coefficient of CSF no.       123 is      0.70874161    7.08741610E-01
  Orbital          3   5   6   7   2   4
  Spin coupling    2   2   2   2   1  -1

 Printout of coefficients in interval  1.0000E-01 to  3.1623E-01
 ===============================================================

  Coefficient of CSF no.        96 is      0.13781541    1.37815414E-01
  Orbital          3   4   5   7   2   6
  Spin coupling    2   2   2   2   1  -1

 Norm of printed CI vector ..      0.98371929

 Magnitude of CI coefficients
 ============================
 ( Ranges are relative to norm of vector :  1.00E+00 )

  10- 1 to 10- 0         4    0.98371929E+00      0.9837192939
  10- 2 to 10- 1         9    0.16107727E-01      0.9998270209
  10- 3 to 10- 2        12    0.16598786E-03      0.9999930088
  10- 4 to 10- 3        28    0.69375124E-05      0.9999999463
  10- 5 to 10- 4        14    0.53468047E-07      0.9999999998
  10- 6 to 10- 5         3    0.22393122E-09      1.0000000000
  Number of coefficients less than 10^-11 times norm is          126


 @ Excited state no:  194 in symmetry 1  ( A  ) - singlet excitation
 -------------------------------------------------------------------

@ Excitation energy :   25.898973     au
@                       704.74690     eV;   5684167.5     cm-1;   67997.743     kJ / mol

@ Total energy :       -11.474838     au

@ Operator label: XDIPLEN ; Transition moment : -2.02736432E-16 au
@ Oscillator strength (LENGTH)   :  7.09667437E-31  (X-polarization)

@ Operator label: YDIPLEN ; Transition moment :  1.95852541E-05 au
@ Oscillator strength (LENGTH)   :  6.62292298E-09  (Y-polarization)

@ Operator label: ZDIPLEN ; Transition moment :  7.35409612E-17 au
@ Oscillator strength (LENGTH)   :  9.33791435E-32  (Z-polarization)
@ Total oscillator strength (LENGTH)   :  6.62292298E-09

 Eigenvector for state no.194

      Index(conf)                         Z operator          Y operator
      ----------                      --------------      --------------
          57                            0.1427391497        0.0000000000
          66                            0.2157005823        0.0000000000
         120                           -0.2774380230        0.0000000000
         126                           -0.9199839119        0.0000000000

      192 elements with absolute value ≤ 1.00D-01 are not printed.

 Printout of coefficients in interval  3.1623E-01 to  1.0000E+00
 ===============================================================

  Coefficient of CSF no.       126 is     -0.91998391   -9.19983912E-01
  Orbital          4   5   6   7   2   3
  Spin coupling    2   2   2   2   1  -1

 Printout of coefficients in interval  1.0000E-01 to  3.1623E-01
 ===============================================================

  Coefficient of CSF no.        57 is      0.14273915    1.42739150E-01
  Orbital          2   3   5   6   4   7
  Spin coupling    2   2   2   2   1  -1

  Coefficient of CSF no.        66 is      0.21570058    2.15700582E-01
  Orbital          3   4   5   6   2   7
  Spin coupling    2   2   2   2   1  -1

  Coefficient of CSF no.       120 is     -0.27743802   -2.77438023E-01
  Orbital          2   5   6   7   3   4
  Spin coupling    2   2   2   2   1  -1

 Norm of printed CI vector ..      0.99024346

 Magnitude of CI coefficients
 ============================
 ( Ranges are relative to norm of vector :  1.00E+00 )

  10- 1 to 10- 0         4    0.99024346E+00      0.9902434608
  10- 2 to 10- 1         5    0.95000409E-02      0.9997435017
  10- 3 to 10- 2        17    0.25120892E-03      0.9999947107
  10- 4 to 10- 3        22    0.52723653E-05      0.9999999830
  10- 5 to 10- 4         7    0.16974320E-07      1.0000000000
  10- 6 to 10- 5         1    0.10593460E-11      1.0000000000
  Number of coefficients less than 10^-11 times norm is          140


 @ Excited state no:  195 in symmetry 1  ( A  ) - singlet excitation
 -------------------------------------------------------------------

@ Excitation energy :   26.222927     au
@                       713.56214     eV;   5755267.2     cm-1;   68848.284     kJ / mol

@ Total energy :       -11.150884     au

@ Operator label: XDIPLEN ; Transition moment :  1.18851364E-05 au
@ Oscillator strength (LENGTH)   :  2.46943871E-09  (X-polarization)

@ Operator label: YDIPLEN ; Transition moment :  2.96202259E-17 au
@ Oscillator strength (LENGTH)   :  1.53379261E-32  (Y-polarization)

@ Operator label: ZDIPLEN ; Transition moment :  3.46987385E-18 au
@ Oscillator strength (LENGTH)   :  2.10483123E-34  (Z-polarization)
@ Total oscillator strength (LENGTH)   :  2.46943871E-09

 Eigenvector for state no.195

      Index(conf)                         Z operator          Y operator
      ----------                      --------------      --------------
          15                            0.1258987729        0.0000000000
          18                            0.2516312281        0.0000000000
          20                            0.1524399843        0.0000000000
          21                            0.8394317567        0.0000000000
          96                            0.1700752778        0.0000000000
         123                           -0.3929436850        0.0000000000

      190 elements with absolute value ≤ 1.00D-01 are not printed.

 Printout of coefficients in interval  3.1623E-01 to  1.0000E+00
 ===============================================================

  Coefficient of CSF no.        21 is      0.83943176    8.39431757E-01
  Orbital          3   4   5   6   7
  Spin coupling    2   2   2   2   2

  Coefficient of CSF no.       123 is     -0.39294369   -3.92943685E-01
  Orbital          3   5   6   7   2   4
  Spin coupling    2   2   2   2   1  -1

 Printout of coefficients in interval  1.0000E-01 to  3.1623E-01
 ===============================================================

  Coefficient of CSF no.        15 is      0.12589877    1.25898773E-01
  Orbital          2   3   4   6   7
  Spin coupling    2   2   2   2   2

  Coefficient of CSF no.        18 is      0.25163123    2.51631228E-01
  Orbital          2   3   5   6   7
  Spin coupling    2   2   2   2   2

  Coefficient of CSF no.        20 is      0.15243998    1.52439984E-01
  Orbital          2   4   5   6   7
  Spin coupling    2   2   2   2   2

  Coefficient of CSF no.        96 is      0.17007528    1.70075278E-01
  Orbital          3   4   5   7   2   6
  Spin coupling    2   2   2   2   1  -1

 Norm of printed CI vector ..      0.99038274

 Magnitude of CI coefficients
 ============================
 ( Ranges are relative to norm of vector :  1.00E+00 )

  10- 1 to 10- 0         6    0.99038274E+00      0.9903827387
  10- 2 to 10- 1         5    0.93119340E-02      0.9996946727
  10- 3 to 10- 2        21    0.29918392E-03      0.9999938566
  10- 4 to 10- 3        33    0.61216783E-05      0.9999999783
  10- 5 to 10- 4         5    0.21692828E-07      1.0000000000
  Number of coefficients less than 10^-11 times norm is          126


 Time used in polarization propagator calculation is      0.57 CPU seconds for symmetry 1

  Total CPU  time used in RESPONSE:   0.59 seconds
  Total wall time used in RESPONSE:   0.94 seconds


                   .-------------------------------------------.
                   | End of Dynamic Property Section (RESPONS) |
                   `-------------------------------------------'

  Total CPU  time used in DALTON:   0.70 seconds
  Total wall time used in DALTON:   1.41 seconds

 NOTE:    1 warnings have been issued.
 Check output, result, and error files for "WARNING".

 
     Date and time (Linux)  : Tue Jul  7 10:31:41 2026
     Host name              : n-62-31-4                               
