

     ************************************************************************
     *************** Dalton - An Electronic Structure Program ***************
     ************************************************************************

    This is output from DALTON release Dalton2024.0-dev (2024)
         ( Web site: http://daltonprogram.org )

   ----------------------------------------------------------------------------

    NOTE:
     
    Dalton is an experimental code for the evaluation of molecular
    properties using (MC)SCF, DFT, CI, and CC wave functions.
    The authors accept no responsibility for the performance of
    the code or for the correctness of the results.
     
    The code (in whole or part) is provided under a licence and
    is not to be reproduced for further distribution without
    the written permission of the authors or their representatives.
     
    See the home page "http://daltonprogram.org" for further information.
     
    If results obtained with this code are published,
    the appropriate citations would be both of:
     
       K. Aidas, C. Angeli, K. L. Bak, V. Bakken,
       R. Bast, L. Boman, O. Christiansen, R. Cimiraglia,
       S. Coriani, P. Dahle, E. K. Dalskov, U. Ekstroem,
       T. Enevoldsen, J. J. Eriksen, P. Ettenhuber, B. Fernandez,
       L. Ferrighi, H. Fliegl, L. Frediani, K. Hald, A. Halkier,
       C. Haettig, H. Heiberg, T. Helgaker, A. C. Hennum,
       H. Hettema, E. Hjertenaes, S. Hoest, I.-M. Hoeyvik,
       M. F. Iozzi, B. Jansik, H. J. Aa. Jensen, D. Jonsson,
       P. Joergensen, J. Kauczor, S. Kirpekar,
       T. Kjaergaard, W. Klopper, S. Knecht, R. Kobayashi, H. Koch,
       J. Kongsted, A. Krapp, K. Kristensen, A. Ligabue,
       O. B. Lutnaes, J. I. Melo, K. V. Mikkelsen, R. H. Myhre,
       C. Neiss, C. B. Nielsen, P. Norman, J. Olsen,
       J. M. H. Olsen, A. Osted, M. J. Packer, F. Pawlowski,
       T. B. Pedersen, P. F. Provasi, S. Reine, Z. Rinkevicius,
       T. A. Ruden, K. Ruud, V. Rybkin, P. Salek, C. C. M. Samson,
       A. Sanchez de Meras, T. Saue, S. P. A. Sauer,
       B. Schimmelpfennig, K. Sneskov, A. H. Steindal,
       K. O. Sylvester-Hvid, P. R. Taylor, A. M. Teale,
       E. I. Tellgren, D. P. Tew, A. J. Thorvaldsen, L. Thoegersen,
       O. Vahtras, M. A. Watson, D. J. D. Wilson, M. Ziolkowski
       and H. Agren,
       "The Dalton quantum chemistry program system",
       WIREs Comput. Mol. Sci. 2014, 4:269-284 (doi: 10.1002/wcms.1172)
     
    and
     
       Dalton, a molecular electronic structure program,
       Release Dalton2024.0-dev (2024), see http://daltonprogram.org
   ----------------------------------------------------------------------------

    Authors in alphabetical order (Major contribution(s) in parenthesis):

  Kestutis Aidas,              Vilnius University,        Lithuania   (QM/MM)
  Celestino Angeli,            University of Ferrara,     Italy       (NEVPT2)
  Juan J. Aucar,               Northeast National UniversiArgentina   (LRESC, Relativistic Effects on EFG)
  Keld L. Bak,                 UNI-C,                     Denmark     (AOSOPPA, non-adiabatic coupling, magnetic properties)
  Vebjoern Bakken,             University of Oslo,        Norway      (DALTON; geometry optimizer, symmetry detection)
  Radovan Bast,                UiT The Arctic U. of NorwayNorway      (DALTON installation and execution frameworks)
  Pablo Baudin,                University of Valencia,    Spain       (Cholesky excitation energies)
  Linus Boman,                 NTNU,                      Norway      (Cholesky decomposition and subsystems)
  Bruno N. Cabral Tenorio,     Technical Univ. of Denmark,Denmark     (Lanczos-based CC methods)
  Ove Christiansen,            Aarhus University,         Denmark     (CC module)
  Renzo Cimiraglia,            University of Ferrara,     Italy       (NEVPT2)
  Sonia Coriani,               Technical Univ. of Denmark,Denmark     (CC and RESPONS modules)
  Janusz Cukras,               University of Warsaw,      Poland      (MChD in RESPONS)
  Paal Dahle,                  University of Oslo,        Norway      (Parallelization)
  Erik K. Dalskov,             UNI-C,                     Denmark     (SOPPA)
  Thomas Enevoldsen,           Univ. of Southern Denmark, Denmark     (SOPPA)
  Janus J. Eriksen,            Aarhus University,         Denmark     (Polarizable embedding, TDA)
  Rasmus Faber,                Technical Univ. of Denmark,Denmark     (Vib.avg. NMR w. SOPPA, parallel AO-SOPPA, CVS-CC and EOMCC)
  Tobias Fahleson,             KTH Stockholm,             Sweden      (Damped cubic response)
  Berta Fernandez,             U. of Santiago de CompostelSpain       (Doublet spin, ESR in RESPONS)
  Lara Ferrighi,               Aarhus University,         Denmark     (PCM Cubic response)
  Heike Fliegl,                University of Oslo,        Norway      (CCSD(R12))
  Luca Frediani,               UiT The Arctic U. of NorwayNorway      (PCM)
  Emmanuel Fromager,           Univ. Strasbourg,          France      (MC-srDFT)
  Bin Gao,                     UiT The Arctic U. of NorwayNorway      (Gen1Int library)
  Andre S. P. Gomes,           CNRS/Universite de Lille,  France      (Frozen density embedding)
  Christof Haettig,            Ruhr-University Bochum,    Germany     (CC module)
  Kasper Hald,                 Aarhus University,         Denmark     (CC module)
  Asger Halkier,               Aarhus University,         Denmark     (CC module)
  Frederik Beyer Hansen,       University of Copenhagen,  Denmark     (Parallel AO-SOPPA)
  Erik D. Hedegaard,           Univ. of Southern Denmark, Denmark     (Polarizable embedding, QM/MM, and MC-srDFT)
  Hanne Heiberg,               University of Oslo,        Norway      (Geometry analysis, selected one-electron integrals)
  Trygve Helgaker,             University of Oslo,        Norway      (DALTON; ABACUS, ERI, DFT modules, London, and much more)
  Alf Christian Hennum,        University of Oslo,        Norway      (Parity violation)
  Hinne Hettema,               University of Auckland,    New Zealand (Quadratic response in RESPONS; SIRIUS supersymmetry)
  Andreas E. Hillers-Bendtsen, University of Copenhagen,  Denmark     (MP3)
  Eirik Hjertenaes,            NTNU,                      Norway      (Cholesky decomposition)
  Nicolai Machholdt Hoeyer,    Aarhus University,         Denmark     (MP3)
  Pi A. B. Haase,              University of Copenhagen,  Denmark     (Triplet AO-SOPPA)
  Maria Francesca Iozzi,       University of Oslo,        Norway      (RPA)
  Christoph Jacob,             TU Braunschweig            Germany     (Frozen density embedding)
  Brano Jansik,                Technical Univ. of Ostrava Czech Rep.  (DFT cubic response)
  Hans Joergen Aa. Jensen,     Univ. of Southern Denmark, Denmark     (DALTON; SIRIUS, RESPONS, ABACUS, MC-srDFT, and much more)
  Dan Jonsson,                 UiT The Arctic U. of NorwayNorway      (Cubic response in RESPONS module)
  Poul Joergensen,             Aarhus University,         Denmark     (RESPONS, ABACUS, and CC modules)
  Maciej Kaminski,             University of Warsaw,      Poland      (CPPh in RESPONS)
  Joanna Kauczor,              Linkoeping University,     Sweden      (Complex polarization propagator (CPP) module)
  Sheela Kirpekar,             Univ. of Southern Denmark, Denmark     (Mass-velocity & Darwin integrals)
  Frederik Oersted Kjeldal,    Technical Univ. of Denmark,Denmark     (MP3)
  Erik Kjellgren,              Univ. of Southern Denmark, Denmark     (MC-srDFT)
  Wim Klopper,                 KIT Karlsruhe,             Germany     (R12 code in CC, SIRIUS, and ABACUS modules)
  Stefan Knecht,               ETH Zurich,                Switzerland (Parallel CI and MCSCF, MC-srDFT)
  Rika Kobayashi,              Australian National Univ., Australia   (DIIS in CC, London in MCSCF)
  Henrik Koch,                 NTNU,                      Norway      (CC module, Cholesky decomposition)
  Jacob Kongsted,              Univ. of Southern Denmark, Denmark     (Polarizable embedding, polarizable density embedding, QM/MM)
  Andrea Ligabue,              University of Modena,      Italy       (CTOCD, AOSOPPA)
  Nanna H. List,               Univ. of Southern Denmark, Denmark     (Polarizable embedding)
  Ola B. Lutnaes,              University of Oslo,        Norway      (DFT Hessian)
  Juan I. Melo,                University of Buenos Aires,Argentina   (LRESC, Relativistic Effects on NMR Shieldings)
  Kurt V. Mikkelsen,           University of Copenhagen,  Denmark     (MC-SCRF, QM/MM, and MP3)
  Rolf H. Myhre,               NTNU,                      Norway      (Subsystems and CC3)
  Christian Neiss,             Univ. Erlangen-Nuernberg,  Germany     (CCSD(R12))
  Christian B. Nielsen,        University of Copenhagen,  Denmark     (QM/MM)
  Patrick Norman,              KTH Stockholm,             Sweden      (Cubic response and complex frequency response in RESPONS)
  Jeppe Olsen,                 Aarhus University,         Denmark     (SIRIUS CI/density modules)
  Jogvan Magnus H. Olsen,      Aarhus University,         Denmark     (Polarizable embedding and polarizable density embedding)
  Anders Osted,                Copenhagen University,     Denmark     (QM/MM)
  Martin J. Packer,            University of Sheffield,   UK          (SOPPA)
  Filip Pawlowski,             Kazimierz Wielki UniversityPoland      (CC3)
  Morten N. Pedersen,          Univ. of Southern Denmark, Denmark     (Polarizable embedding)
  Thomas B. Pedersen,          University of Oslo,        Norway      (Cholesky decomposition)
  Patricio F. Provasi,         University of Northeastern,Argentina   (Analysis of coupling constants in localized orbitals)
  Peter Reinholdt,             Univ. of Southern Denmark, Denmark     (Polarizable embedding and polarizable density embedding)
  Zilvinas Rinkevicius,        KTH Stockholm,             Sweden      (open-shell DFT, ESR)
  Elias Rudberg,               KTH Stockholm,             Sweden      (DFT grid and basis info)
  Torgeir A. Ruden,            University of Oslo,        Norway      (Numerical derivatives in ABACUS)
  Kenneth Ruud,                UiT The Arctic U. of NorwayNorway      (DALTON; ABACUS magnetic properties and much more)
  Pawel Salek,                 KTH Stockholm,             Sweden      (DALTON; DFT code)
  Claire C. M. Samson,         University of Karlsruhe    Germany     (Boys localization, r12 integrals in ERI)
  Alfredo Sanchez de Meras,    University of Valencia,    Spain       (CC module, Cholesky decomposition)
  Trond Saue,                  Paul Sabatier University,  France      (direct Fock matrix construction)
  Stephan P. A. Sauer,         University of Copenhagen,  Denmark     (SOPPA(CCSD), SOPPA prop., AOSOPPA, vibrational g-factors)
  Bernd Schimmelpfennig,       Forschungszentrum KarlsruheGermany     (AMFI module)
  Anna K. Schnack-Petersen,    University of Copenhagen,  Denmark     (RPA(D) and HRPA(D) properties in AOSOPPA)
  Kristian Sneskov,            Aarhus University,         Denmark     (Polarizable embedding, QM/MM)
  Arnfinn H. Steindal,         UiT The Arctic U. of NorwayNorway      (parallel QM/MM, polarizable embedding)
  Casper Steinmann,            Aalborg University,        Denmark     (QFIT, polarizable embedding)
  K. O. Sylvester-Hvid,        University of Copenhagen,  Denmark     (MC-SCRF)
  Peter R. Taylor,             VLSCI/Univ. of Melbourne,  Australia   (Symmetry handling ABACUS, integral transformation)
  Andrew M. Teale,             University of Nottingham,  England     (DFT-AC, DFT-D)
  David P. Tew,                University of Bristol,     England     (CCSD(R12))
  Julien Toulouse,             Sorbonne Univ.,            France      (MC-srDFT)
  Olav Vahtras,                KTH Stockholm,             Sweden      (Triplet response, spin-orbit, ESR, TDDFT, open-shell DFT)
  Lucas Visscher,              Vrije Universiteit AmsterdaNetherlands (Frozen density embedding)
  David J. Wilson,             La Trobe University,       Australia   (DFT Hessian and DFT magnetizabilities)
  Luna Zamok,                  University of Copenhagen,  Denmark     (Block Lanczos RPA solver in SOPPA module)
  Hans Agren,                  KTH Stockholm,             Sweden      (SIRIUS module, RESPONS, MC-SCRF solvation)
 --------------------------------------------------------------------------------

     Date and time (Linux)  : Tue Jul  7 15:31:54 2026
     Host name              : n-62-31-24                              

 * Work memory size             :   512000000 =  3.815 gigabytes.

 * Directories for basis set searches:
   1) /work3/jochar/DaltonTests
   2) /zhome/d7/7/119775/My_Codes/Dalton_Release/dalton/build_omp_nov24/basis


Compilation information
-----------------------

 Who compiled             | soco
 Host                     | hpclogin1
 System                   | Linux-6.1.112-1.el9.elrepo.x86_64
 CMake generator          | Unix Makefiles
 Processor                | x86_64
 64-bit integers          | OFF
 MPI                      | OFF
 Fortran compiler         | /appl/intel/2023.2.0.49397/compiler/2023.2.0/linux
                          | /bin/intel64/ifort
 Fortran compiler version | ifort (IFORT) 2021.10.0 20230609
 C compiler               | /appl/intel/2023.2.0.49397/compiler/2023.2.0/linux
                          | /bin/intel64/icc
 C compiler version       | icc (ICC) 2021.10.0 20230609
 C++ compiler             | /appl/intel/2023.2.0.49397/compiler/2023.2.0/linux
                          | /bin/intel64/icpc
 C++ compiler version     | icpc (ICC) 2021.10.0 20230609
 Static linking           | OFF
 Last Git revision        | a531ac4fbf115ebda1c90140ce3fd6aa236a2033
 Git branch               | master
 Configuration time       | 2024-11-14 11:23:30.470039

 * Sequential calculation.


   Content of the .dal input file
 ----------------------------------

**DALTON INPUT
.RUN WAVE FUNCTIONS   !tipo di calcolo
.RUN RESPONSE
**INTEGRALS
.DIPLEN               !integrali dell'operatore dipolo elettrico
**WAVE FUNCTION
.HF
.CI
!*PRINT
!.PRINTL
!   0 11
*SCF INP              !parte da Hartree-Fock
.DOUBLY OCCUPIED
5
.THRESH               !soglia di convergenza
 1.0D-10
*CONFIGURATION INPUT
.SPIN MULTIPLICITY
1
.SYMMETRY
1
.INACTIVE ORBITALS !the inner electrons are kept frozen
0
.CAS SPACE
7
.ELECTRONS
10
**RESPONS
*LINEAR
.THCLR
1.0d-9
.DIPLEN
.SINGLE RESIDUE
.ROOTS
300
**END OF INPUT


   Content of the .mol file
 ----------------------------

BASIS
STO-3G
test VQE
dalton test
Atomtypes=2 Angstrom Nosymmetry
Charge=8.0 Atoms=1
O     0.1035000000000000  0.0000000000000000  0.0
Charge=1.0 Atoms=2
H    -0.4640000000000000  0.7956000000000000  0.0
H    -0.4640000000000000  -0.7956000000000000  0.0


       *******************************************************************
       *********** Output from DALTON general input processing ***********
       *******************************************************************

 --------------------------------------------------------------------------------
   Overall default print level:    0
   Print level for DALTON.STAT:    1

    HERMIT 1- and 2-electron integral sections will be executed
    "Old" integral transformation used (limited to max 255 basis functions)
    Wave function sections will be executed (SIRIUS module)
    Dynamic molecular response properties section will be executed (RESPONSE module)
 --------------------------------------------------------------------------------


   ****************************************************************************
   *************** Output of molecule and basis set information ***************
   ****************************************************************************


    The two title cards from your ".mol" input:
    --------------------------------------------------------------------------------
 1: test VQE
 2: dalton test
    --------------------------------------------------------------------------------

  Coordinates are entered in Angstrom and converted to atomic units.
          - Conversion factor : 1 bohr = 0.52917721 A

  Atomic type no.    1
  --------------------
  Nuclear charge:   8.00000
  Number of symmetry independent centers:    1
  Number of basis sets to read;    2
  Basis set file used for this atomic type with Z =   8 :
     "/zhome/d7/7/119775/My_Codes/Dalton_Release/dalton/build_omp_nov24/basis/STO-3G"

  Atomic type no.    2
  --------------------
  Nuclear charge:   1.00000
  Number of symmetry independent centers:    2
  Number of basis sets to read;    2
  Basis set file used for this atomic type with Z =   1 :
     "/zhome/d7/7/119775/My_Codes/Dalton_Release/dalton/build_omp_nov24/basis/STO-3G"


                         SYMGRP: Point group information
                         -------------------------------

@    Point group: C1 


                                 Isotopic Masses
                                 ---------------

                           O          15.994915
                           H           1.007825
                           H           1.007825

                       Total mass:    18.010565 amu
                       Natural abundance:  99.730 %

 Center-of-mass coordinates (a.u.):    0.075567    0.000000    0.000000
 Center-of-mass coordinates (Angs):    0.039988    0.000000    0.000000


  Atoms and basis sets
  --------------------

  Number of atom types :    2
  Total number of atoms:    3

  Basis set used is "STO-3G" from the basis set library.

  label    atoms   charge   prim   cont     basis
  ----------------------------------------------------------------------
  O           1    8.0000    15     5      [6s3p|2s1p]                                        
  H           2    1.0000     3     1      [3s|1s]                                            
  ----------------------------------------------------------------------
  total:      3   10.0000    21     7
  ----------------------------------------------------------------------

  Threshold for neglecting AO integrals:  1.00D-12


  Cartesian Coordinates (a.u.)
  ----------------------------

  Total number of coordinates:    9
  O       :     1  x   0.1955866539    2  y   0.0000000000    3  z   0.0000000000
  H       :     4  x  -0.8768329220    5  y   1.5034661050    6  z   0.0000000000
  H       :     7  x  -0.8768329220    8  y  -1.5034661050    9  z   0.0000000000


   Interatomic separations (in Angstrom):
   --------------------------------------

            O           H           H     
            ------      ------      ------
 O     :    0.000000
 H     :    0.977259    0.000000
 H     :    0.977259    1.591200    0.000000


  Max    interatomic separation is    1.5912 Angstrom (    3.0069 Bohr)
  between atoms    3 and    2, "H     " and "H     ".

  Min HX interatomic separation is    0.9773 Angstrom (    1.8468 Bohr)


  Bond distances (Angstrom):
  --------------------------

                  atom 1     atom 2       distance
                  ------     ------       --------
  bond distance:  H          O            0.977259
  bond distance:  H          O            0.977259


  Bond angles (degrees):
  ----------------------

                  atom 1     atom 2     atom 3         angle
                  ------     ------     ------         -----
  bond angle:     H          O          H            109.000




 Principal moments of inertia (u*A**2) and principal axes
 --------------------------------------------------------

   IA       0.576503          0.000000    1.000000    0.000000
   IB       1.275865          1.000000    0.000000    0.000000
   IC       1.852368          0.000000    0.000000    1.000000


 Rotational constants
 --------------------

@    The molecule is planar.

               A                   B                   C

         876628.8169         396107.0071         272828.6660 MHz
           29.241190           13.212708            9.100585 cm-1


@  Nuclear repulsion energy :    8.996423008986 Hartree


                     .---------------------------------------.
                     | Starting in Integral Section (HERMIT) |
                     `---------------------------------------'



 ***************************************************************************************
 ****************** Output from **INTEGRALS input processing (HERMIT) ******************
 ***************************************************************************************



    *************************************************************************
    ****************** Output from HERMIT input processing ******************
    *************************************************************************


 Default print level:        1

 Calculation of one- and two-electron Hamiltonian integrals.

 The following one-electron property integrals are calculated as requested:
          - overlap integrals
          - dipole length integrals

 Center of mass  (bohr):      0.075566958928      0.000000000000      0.000000000000
 Operator center (bohr):      0.000000000000      0.000000000000      0.000000000000
 Gauge origin    (bohr):      0.000000000000      0.000000000000      0.000000000000
 Dipole origin   (bohr):      0.000000000000      0.000000000000      0.000000000000

Calculation of 2-electron integrals are postponed until they are needed.


     ************************************************************************
     ************************** Output from HERINT **************************
     ************************************************************************



                      Nuclear contribution to dipole moments
                      --------------------------------------

                 au               Debye          C m (/(10**-30)

      x     -0.18897261        -0.48032044        -1.60217653
      y      0.00000000         0.00000000         0.00000000
      z      0.00000000         0.00000000         0.00000000


  Total CPU  time used in HERMIT:   0.01 seconds
  Total wall time used in HERMIT:   0.04 seconds


                        .----------------------------------.
                        | End of Integral Section (HERMIT) |
                        `----------------------------------'



                   .--------------------------------------------.
                   | Starting in Wave Function Section (SIRIUS) |
                   `--------------------------------------------'


     WARNING  Reference state is required for CI response and CI-NO
     WARNING  ".STATE" was not specified for "*CI INPUT",
     WARNING  the reference state is set to be state no.  1

 *** Output from Huckel module :

     Using EWMO model:          T
     Using EHT  model:          F
     Number of Huckel orbitals each symmetry:    7

 EWMO - Energy Weighted Maximum Overlap - is a Huckel type method,
        which normally is better than Extended Huckel Theory.
 Reference: Linderberg and Ohrn, Propagators in Quantum Chemistry (Wiley, 1973)

 Huckel EWMO eigenvalues for symmetry :  1
          -20.684655      -1.594745      -0.787122      -0.682665      -0.616200
           -0.240931      -0.173582

 **********************************************************************
 *SIRIUS* a direct, restricted step, second order MCSCF program       *
 **********************************************************************

 
     Date and time (Linux)  : Tue Jul  7 15:31:54 2026
     Host name              : n-62-31-24                              

 Title lines from ".mol" input file:
     test VQE
     dalton test

 Print level on unit LUPRI =   2 is   0
 Print level on unit LUW4  =   2 is   5

@    Configuration interaction calculation.

@    CI response calculation.

@    CI type: user specified active spaces.
@              Type: complete active space calculation (CAS).

@    This is a combination run starting with
@              a restricted, closed shell Hartree-Fock calculation


 Initial molecular orbitals are obtained according to
 ".MOSTART EWMO  " input option

     Wave function specification
     ============================
@    Wave function type        --- CI ---
@    Number of closed shell electrons           0
@    Number of electrons in active shells      10
@    Total charge of the molecule               0

@    Spin multiplicity and 2 M_S                1         0
@    Total number of symmetries                 1 (point group: C1 )
@    Reference state symmetry                   1 (irrep name : A  )

     Orbital specifications
     ======================
@    Abelian symmetry species          All |    1
@                                          |  A  
                                       --- |  ---
@    Inactive orbitals                   0 |    0
@    Active orbitals                     7 |    7
@    Secondary orbitals                  0 |    0
@    Total number of orbitals            7 |    7
@    Number of basis functions           7 |    7

      -- Initial occupation of symmetries is determined from user input.                      
      -- Initial occupation of symmetries is :
@    Occupied SCF orbitals               5 |    5

     Optimization information
     ========================
@    Number of configurations               196
@    Number of orbital rotations              0
     ------------------------------------------
@    Total number of variables              196

     Maximum number of CI iterations         25
     Threshold for CI convergence      1.00D-05
     Number of CI roots to converge           1

@    Reference state in CI response calculation :       1


 ***********************************************
 ***** DIIS acceleration of SCF iterations *****
 ***********************************************

 C1-DIIS algorithm; max error vectors =    8

 Iter      Total energy        Error norm    Delta(E)  DIIS dim.
 -----------------------------------------------------------------------------

Calculating AOSUPINT

---> (Re)generating AOTWOINT


     ************************************************************************
     ************************** Output from HERINT **************************
     ************************************************************************


 Threshold for neglecting two-electron integrals:  1.00D-12
 HERMIT - Number of two-electron integrals written:         228 ( 56.2% )
 HERMIT - Megabytes written:                              0.137

     (Precalculated AO two-electron integrals are transformed to P-supermatrix elements.
      Threshold for discarding integrals :  1.00D-12 )

@  1    -74.9147546503        7.22428D-01   -7.49D+01    1
      Virial theorem: -V/T =      2.004517
@    MULPOP   O      -0.46; H       0.23; H       0.23; 
   1  Level shift: doubly occupied orbital energies shifted by -2.00D-01
 -----------------------------------------------------------------------------
@  2    -74.9573554605        2.18829D-01   -4.26D-02    2
      Virial theorem: -V/T =      2.006532
@    MULPOP   O      -0.37; H       0.18; H       0.18; 
   2  Level shift: doubly occupied orbital energies shifted by -1.00D-01
 -----------------------------------------------------------------------------
@  3    -74.9622160084        3.60736D-02   -4.86D-03    3
      Virial theorem: -V/T =      2.005790
@    MULPOP   O      -0.36; H       0.18; H       0.18; 
   3  Level shift: doubly occupied orbital energies shifted by -2.50D-02
 -----------------------------------------------------------------------------
@  4    -74.9623530973        2.91022D-03   -1.37D-04    4
      Virial theorem: -V/T =      2.005607
@    MULPOP   O      -0.36; H       0.18; H       0.18; 
 -----------------------------------------------------------------------------
@  5    -74.9623547782        3.33498D-04   -1.68D-06    5
      Virial theorem: -V/T =      2.005590
@    MULPOP   O      -0.36; H       0.18; H       0.18; 
 -----------------------------------------------------------------------------
@  6    -74.9623547998        8.44260D-06   -2.15D-08    6
      Virial theorem: -V/T =      2.005591
@    MULPOP   O      -0.36; H       0.18; H       0.18; 
 -----------------------------------------------------------------------------
@  7    -74.9623547998        5.44501D-08   -1.04D-11    7
      Virial theorem: -V/T =      2.005591
@    MULPOP   O      -0.36; H       0.18; H       0.18; 
 -----------------------------------------------------------------------------
@  8    -74.9623547998        1.29942D-09    0.00D+00    8
      Virial theorem: -V/T =      2.005591
@    MULPOP   O      -0.36; H       0.18; H       0.18; 
 -----------------------------------------------------------------------------
@  9    -74.9623547998        2.89494D-08    0.00D+00    8
      Virial theorem: -V/T =      2.005591
@    MULPOP   O      -0.36; H       0.18; H       0.18; 
 -----------------------------------------------------------------------------
@ 10    -74.9623547998        9.82237D-15    2.84D-14    8

@ *** DIIS converged in  10 iterations !
@     Converged SCF energy, gradient:    -74.962354799773    9.82D-15
    - total time used in SIRFCK :              0.00 seconds

 --- Writing SIRIFC interface file

--------------------------------------------------------------------------------


     .--------------------------------------------------.
     | HF-SCF KT IPs [a.u. & eV] from Koopmans' theorem |
     `--------------------------------------------------'


     HF-SCF KT symmetry 1 ( A  ) in point group C1  -- 5 principal poles with pole strength 1

   ============  ============  ============  ============  ============
      20.237430      1.253011      0.614069      0.439628      0.386334
     550.688496     34.096172     16.709655     11.962878     10.512676
   ============  ============  ============  ============  ============

@ Summary of HF-SCF KT ionization potentials [eV]:

@ Symmetry 1 (A  ) :   550.688      34.096      16.710      11.963      10.513

  === End of HF-SCF KT output ===
--------------------------------------------------------------------------------


 CPU and wall time for SCF :       0.059       0.585


 ----- Output from SIRIUS CI module (CICTL) -----




 2-el. integral transformation level 0: Total CPU and WALL times (sec)       0.007       0.057

 (CIST1) 8 lowest diagonal elements:

 Element no. Config.no.    Active energy      Total energy

         1 :          1    -83.9587778088    -74.9623547998
         2 :         22    -83.5406666395    -74.5442436305
         3 :         23    -83.4410646844    -74.4446416755
         4 :         25    -83.4183491881    -74.4219261791
         5 :         26    -83.3271052142    -74.3306822052
         6 :         28    -83.2592297766    -74.2628067677
         7 :         29    -83.0670576625    -74.0706346535
         8 :        127    -82.8199655411    -73.8235425321

Lowest 1 elements are used as separate start CI vectors.


 Convergence threshold for CI optimization :     0.00001000


 CI root     eigenvalue        residual norm

    1      -74.9623547998        0.3190539276

 CI root     eigenvalue        residual norm

    1      -75.0115955591        0.0704222616

 CI root     eigenvalue        residual norm

    1      -75.0136346276        0.0168100387

 CI root     eigenvalue        residual norm

    1      -75.0137476694        0.0029866721

 CI root     eigenvalue        residual norm

    1      -75.0137524383        0.0006073226

 CI root     eigenvalue        residual norm

    1      -75.0137525809        0.0000898677

 CI root     eigenvalue        residual norm

    1      -75.0137525843        0.0000129744

 CI root     eigenvalue        residual norm

    1      -75.0137525843        0.0000019849 converged

 The requested root number is now converged.


 *** CI converged in  8 iterations.



@ Final CI energies and residuals in symmetry 1 (irrep A  )
@    1      -75.013752584318382       1.98D-06

 Writing SIRIFC interface file for CI root no. 1

 CPU and wall time for CI :       0.024       0.202


                       .-----------------------------------.
                       | --- Final results from SIRIUS --- |
                       `-----------------------------------'


@    Spin multiplicity:           1
@    Spatial symmetry:            1 ( irrep  A   in C1  )
@    Total charge of molecule:    0

@    This was a CI calculation.
@    State number:                1

@    Final CI energy:             -75.013752584318
@    Nuclear repulsion:             8.996423008986
@    Electronic energy:           -84.010175593304

@    Final gradient norm:           0.000001984916

 
     Date and time (Linux)  : Tue Jul  7 15:31:55 2026
     Host name              : n-62-31-24                              

 Occupancies of natural orbitals
 -------------------------------

 Symmetry 1  ( A  ) -- Total occupation in this symmetry is  10.000000000

   1.999997776   1.997902652   1.972375229   1.974925564   1.998240970
   0.028961199   0.027596610

  Effective numbers of unpaired electrons this symmetry Eqs. 1) and 2):  0.22  0.01

  Total effective number of unpaired electrons :
  Eq. 1) sum(i) [(2 - n_i) n_i]    =  0.2232
  Eq. 2) sum(i) [(2 - n_i) n_i]**2 =  0.0117
 (Reference: M. Head-Gordon, Chemical Physics Letters 372 (2003) 508-511)

  --- NOTE THAT THE OCCUPATION NUMBERS ARE FOR ANALYSIS PURPOSE ONLY
  --- The orbital coefficients have NOT been transformed
  --- to ordered natural orbitals.

File label for MO orbitals:   7Jul26    CIORB  

 (Only coefficients > 0.0100 are printed.)

 Molecular orbitals for symmetry species 1  (A  )
 ------------------------------------------------

    Orbital         1        2        3        4        5        6        7
   1 O   :1s    -0.9942   0.2339   0.0000   0.0993  -0.0000   0.1315  -0.0000
   2 O   :1s    -0.0262  -0.8416  -0.0000  -0.5170   0.0000  -0.8601   0.0000
   3 O   :2px    0.0040   0.1182  -0.0000  -0.7863   0.0000   0.7166  -0.0000
   4 O   :2py    0.0000  -0.0000  -0.5996  -0.0000   0.0000  -0.0000  -0.9917
   5 O   :2pz   -0.0000  -0.0000  -0.0000  -0.0000  -1.0000   0.0000   0.0000
   6 H   :1s     0.0058  -0.1581  -0.4440   0.2807   0.0000   0.7874   0.8181
   7 H   :1s     0.0058  -0.1581   0.4440   0.2807  -0.0000   0.7874  -0.8181

 Printout of CI-coefficients abs greater than 0.05000 for root  1
 *** NOTE: this root is the CI reference state ***

 Printout of coefficients in interval  3.1623E-01 to  1.0000E+00
 ===============================================================

  Coefficient of CSF no.         1 is      0.98566607    9.85666066E-01
  Orbital          1   2   3   4   5
  Spin coupling    2   2   2   2   2

 Printout of coefficients in interval  1.0000E-01 to  3.1623E-01
 ===============================================================
   ( no coefficients )

 Printout of coefficients in interval  5.0000E-02 to  1.0000E-01
 ===============================================================

  Coefficient of CSF no.         9 is     -0.07747912   -7.74791241E-02
  Orbital          1   2   4   5   7
  Spin coupling    2   2   2   2   2

  Coefficient of CSF no.       136 is     -0.08532063   -8.53206300E-02
  Orbital          1   2   5   3   4   6   7
  Spin coupling    2   2   2   1  -1   1  -1

  Coefficient of CSF no.       142 is      0.05213586    5.21358602E-02
  Orbital          1   4   5   2   3   6   7
  Spin coupling    2   2   2   1  -1   1  -1

 Norm of printed CI vector ..      0.98753837

 Magnitude of CI coefficients
 ============================
 ( Ranges are relative to norm of vector :  1.00E+00 )

  10- 1 to 10- 0         1    0.97153759E+00      0.9715375941
  10- 2 to 10- 1        15    0.28271656E-01      0.9998092497
  10- 3 to 10- 2        14    0.18707261E-03      0.9999963223
  10- 4 to 10- 3        13    0.36346208E-05      0.9999999569
  10- 5 to 10- 4        23    0.42946530E-07      0.9999999998
  10- 6 to 10- 5         4    0.15269396E-09      1.0000000000
  Number of coefficients less than 10^-11 times norm is          126

  Total CPU  time used in SIRIUS :   0.11 seconds
  Total wall time used in SIRIUS :   0.91 seconds

 
     Date and time (Linux)  : Tue Jul  7 15:31:55 2026
     Host name              : n-62-31-24                              


                     .---------------------------------------.
                     | End of Wave Function Section (SIRIUS) |
                     `---------------------------------------'



                 .------------------------------------------------.
                 | Starting in Dynamic Property Section (RESPONS) |
                 `------------------------------------------------'


 ----------------------------------------------------------------------------------------
  RESPONSE  -  an MCSCF, MC-srDFT, DFT, SOPPA and SOPPA-srDFT response property program
 ----------------------------------------------------------------------------------------

 This is a configuration interaction response calculation.
   Note: this is equivalent to a CI sum-over-states calculation of response properties.


 -------- OUTPUT FROM RESPONSE INPUT PROCESSING --------




  Linear Response single residue calculation
 -------------------------------------------


    4 input options by user.

 Print level                                    : IPRPP  =   2
 Maximum number of iterations for eigenval.eqs. : MAXITP =  60
 Threshold for convergence of eigenvalue eqs.   : THCPP  = 1.000D-03
 Maximum iterations in optimal orbital algorithm: MAXITO =   5

    300 Excitation energies are calculated for symmetry no.    1

      3 property residues are calculated with labels:

               XDIPLEN 
               YDIPLEN 
               ZDIPLEN 

 Old direct access AO file found, SORTA skipped.

 2-el. integral transformation level 4: Total CPU and WALL times (sec)       0.005       0.087


 CI energy            :      -75.013752584318382
 -- inactive part     :        8.996423008985666
 --   active part     :      -84.010175593304041
 -- nuclear repulsion :        8.996423008985666


                         *******************************
                         *** CI response calculation ***
                         *******************************

 ----------------------------------------------------------------
 ----- Linear response calculation
 ----- Symmetry of excitation/property operator(s)    1  ( A  )
 ----------------------------------------------------------------

 Number of excitations of this symmetry          300
 Number of response properties of this symmetry    0
 Number of C6/C8 properties of this symmetry       0


 Perturbation symmetry.     KSYMOP:           1
 Perturbation spin symmetry.TRPLET:           F
 Orbital variables.         KZWOPT:           0
 Configuration variables.   KZCONF:         196
 Total number of variables. KZVAR :         196

 ** RSPVAR ** Number of PP start vectors  300
   exceeds the maximum number of variables  195
   Number of start vectors reset to number of variables



 --- EXCITATION ENERGIES AND TRANSITION MOMENT CALCULATION (MCTDHF) ---

 Operator symmetry = 1  ( A  ); triplet =   F

RSPORT:    1 out of   76 new trial vectors linear dependent

 ** RSPCTL MICROITERATION NUMBER    1

      Root  Residual tot.,    conf., and orb.    Bnorm      Eigenvalue
      ----------------------------------------------------------------
         1    3.53353D-14  3.53D-14  0.00D+00  1.00D+00    4.27738D-01
         2    3.98556D-14  3.99D-14  0.00D+00  1.00D+00    5.26212D-01
         3    5.01446D-14  5.01D-14  0.00D+00  1.00D+00    5.62844D-01
         4    3.26199D-14  3.26D-14  0.00D+00  1.00D+00    6.71266D-01
         5    3.45079D-14  3.45D-14  0.00D+00  1.00D+00    8.08608D-01
         6    4.14877D-14  4.15D-14  0.00D+00  1.00D+00    9.57337D-01
         7    3.09462D-14  3.09D-14  0.00D+00  1.00D+00    1.03138D+00
         8    4.30304D-14  4.30D-14  0.00D+00  1.00D+00    1.04937D+00
         9    3.37584D-14  3.38D-14  0.00D+00  1.00D+00    1.06314D+00
        10    4.34479D-14  4.34D-14  0.00D+00  1.00D+00    1.13194D+00
        11    3.21754D-14  3.22D-14  0.00D+00  1.00D+00    1.21490D+00
        12    3.06923D-14  3.07D-14  0.00D+00  1.00D+00    1.25336D+00
        13    3.24978D-14  3.25D-14  0.00D+00  1.00D+00    1.30919D+00
        14    5.05313D-14  5.05D-14  0.00D+00  1.00D+00    1.31399D+00
        15    3.20979D-14  3.21D-14  0.00D+00  1.00D+00    1.34368D+00
        16    3.13377D-14  3.13D-14  0.00D+00  1.00D+00    1.34956D+00
        17    4.35803D-14  4.36D-14  0.00D+00  1.00D+00    1.39153D+00
        18    2.79775D-14  2.80D-14  0.00D+00  1.00D+00    1.40554D+00
        19    3.20442D-14  3.20D-14  0.00D+00  1.00D+00    1.41707D+00
        20    4.83469D-14  4.83D-14  0.00D+00  1.00D+00    1.45491D+00
        21    3.77797D-14  3.78D-14  0.00D+00  1.00D+00    1.50531D+00
        22    3.34136D-14  3.34D-14  0.00D+00  1.00D+00    1.50725D+00
        23    2.88661D-14  2.89D-14  0.00D+00  1.00D+00    1.51054D+00
        24    3.21540D-14  3.22D-14  0.00D+00  1.00D+00    1.52249D+00
        25    4.08476D-14  4.08D-14  0.00D+00  1.00D+00    1.55440D+00
        26    2.80018D-14  2.80D-14  0.00D+00  1.00D+00    1.68484D+00
        27    3.52775D-14  3.53D-14  0.00D+00  1.00D+00    1.70958D+00
        28    2.98621D-14  2.99D-14  0.00D+00  1.00D+00    1.76408D+00
        29    3.35068D-14  3.35D-14  0.00D+00  1.00D+00    1.82946D+00
        30    3.13669D-14  3.14D-14  0.00D+00  1.00D+00    1.83199D+00
        31    4.08926D-14  4.09D-14  0.00D+00  1.00D+00    1.86365D+00
        32    3.40451D-14  3.40D-14  0.00D+00  1.00D+00    1.89813D+00
        33    3.12079D-14  3.12D-14  0.00D+00  1.00D+00    1.90172D+00
        34    3.83791D-14  3.84D-14  0.00D+00  1.00D+00    1.94999D+00
        35    3.16744D-14  3.17D-14  0.00D+00  1.00D+00    1.98500D+00
        36    3.02329D-14  3.02D-14  0.00D+00  1.00D+00    2.02643D+00
        37    2.91512D-14  2.92D-14  0.00D+00  1.00D+00    2.03538D+00
        38    3.84570D-14  3.85D-14  0.00D+00  1.00D+00    2.03652D+00
        39    3.60160D-14  3.60D-14  0.00D+00  1.00D+00    2.09093D+00
        40    3.50703D-14  3.51D-14  0.00D+00  1.00D+00    2.11955D+00
        41    2.74722D-14  2.75D-14  0.00D+00  1.00D+00    2.12331D+00
        42    2.91170D-14  2.91D-14  0.00D+00  1.00D+00    2.12424D+00
        43    3.27958D-14  3.28D-14  0.00D+00  1.00D+00    2.14498D+00
        44    3.13468D-14  3.13D-14  0.00D+00  1.00D+00    2.18094D+00
        45    2.90161D-14  2.90D-14  0.00D+00  1.00D+00    2.19646D+00
        46    4.46782D-14  4.47D-14  0.00D+00  1.00D+00    2.20723D+00
        47    3.22115D-14  3.22D-14  0.00D+00  1.00D+00    2.23726D+00
        48    2.96836D-14  2.97D-14  0.00D+00  1.00D+00    2.28940D+00
        49    3.88447D-14  3.88D-14  0.00D+00  1.00D+00    2.30730D+00
        50    2.75526D-14  2.76D-14  0.00D+00  1.00D+00    2.32185D+00
        51    2.75477D-14  2.75D-14  0.00D+00  1.00D+00    2.33057D+00
        52    3.07328D-14  3.07D-14  0.00D+00  1.00D+00    2.35694D+00
        53    3.12093D-14  3.12D-14  0.00D+00  1.00D+00    2.39122D+00
        54    3.87504D-14  3.88D-14  0.00D+00  1.00D+00    2.42028D+00
        55    4.08867D-14  4.09D-14  0.00D+00  1.00D+00    2.49308D+00
        56    4.57246D-14  4.57D-14  0.00D+00  1.00D+00    2.54370D+00
        57    3.09458D-14  3.09D-14  0.00D+00  1.00D+00    2.55904D+00
        58    3.58132D-14  3.58D-14  0.00D+00  1.00D+00    2.61577D+00
        59    3.99167D-14  3.99D-14  0.00D+00  1.00D+00    2.68114D+00
        60    3.25512D-14  3.26D-14  0.00D+00  1.00D+00    2.68301D+00
        61    3.18859D-14  3.19D-14  0.00D+00  1.00D+00    2.70678D+00
        62    4.26931D-14  4.27D-14  0.00D+00  1.00D+00    2.75026D+00
        63    3.10968D-14  3.11D-14  0.00D+00  1.00D+00    2.79290D+00
        64    3.99987D-14  4.00D-14  0.00D+00  1.00D+00    2.81135D+00
        65    4.29129D-14  4.29D-14  0.00D+00  1.00D+00    2.81192D+00
        66    3.29532D-14  3.30D-14  0.00D+00  1.00D+00    2.82185D+00
        67    3.47931D-14  3.48D-14  0.00D+00  1.00D+00    2.89243D+00
        68    3.65271D-14  3.65D-14  0.00D+00  1.00D+00    2.92104D+00
        69    4.71690D-14  4.72D-14  0.00D+00  1.00D+00    2.92191D+00
        70    3.79704D-14  3.80D-14  0.00D+00  1.00D+00    2.92790D+00
        71    5.49238D-14  5.49D-14  0.00D+00  1.00D+00    2.96901D+00
        72    3.28988D-14  3.29D-14  0.00D+00  1.00D+00    2.97858D+00
        73    3.75773D-14  3.76D-14  0.00D+00  1.00D+00    2.98157D+00
        74    4.28859D-14  4.29D-14  0.00D+00  1.00D+00    2.99118D+00
        75    3.49546D-14  3.50D-14  0.00D+00  1.00D+00    3.02075D+00
        76    3.86508D-14  3.87D-14  0.00D+00  1.00D+00    3.03716D+00
        77    5.13327D-14  5.13D-14  0.00D+00  1.00D+00    3.08699D+00
        78    3.32355D-14  3.32D-14  0.00D+00  1.00D+00    3.09873D+00
        79    3.79893D-14  3.80D-14  0.00D+00  1.00D+00    3.11832D+00
        80    4.84898D-14  4.85D-14  0.00D+00  1.00D+00    3.15591D+00
        81    3.51761D-14  3.52D-14  0.00D+00  1.00D+00    3.17666D+00
        82    3.87803D-14  3.88D-14  0.00D+00  1.00D+00    3.22919D+00
        83    5.33690D-14  5.34D-14  0.00D+00  1.00D+00    3.24220D+00
        84    5.18944D-14  5.19D-14  0.00D+00  1.00D+00    3.32581D+00
        85    4.36019D-14  4.36D-14  0.00D+00  1.00D+00    3.45113D+00
        86    4.65140D-14  4.65D-14  0.00D+00  1.00D+00    3.55648D+00
        87    4.90287D-14  4.90D-14  0.00D+00  1.00D+00    3.56564D+00
        88    4.76903D-14  4.77D-14  0.00D+00  1.00D+00    3.61626D+00
        89    6.53376D-14  6.53D-14  0.00D+00  1.00D+00    3.75089D+00
        90    4.18906D-14  4.19D-14  0.00D+00  1.00D+00    3.76395D+00
        91    4.65538D-14  4.66D-14  0.00D+00  1.00D+00    3.77549D+00
        92    3.80917D-14  3.81D-14  0.00D+00  1.00D+00    3.79295D+00
        93    4.04129D-14  4.04D-14  0.00D+00  1.00D+00    3.83837D+00
        94    4.34359D-14  4.34D-14  0.00D+00  1.00D+00    3.87217D+00
        95    5.33498D-14  5.33D-14  0.00D+00  1.00D+00    3.87476D+00
        96    5.07889D-14  5.08D-14  0.00D+00  1.00D+00    3.93021D+00
        97    4.26265D-14  4.26D-14  0.00D+00  1.00D+00    3.94848D+00
        98    5.56154D-14  5.56D-14  0.00D+00  1.00D+00    4.01569D+00
        99    6.56917D-14  6.57D-14  0.00D+00  1.00D+00    4.28700D+00
       100    6.39665D-14  6.40D-14  0.00D+00  1.00D+00    4.30852D+00
       101    6.39832D-14  6.40D-14  0.00D+00  1.00D+00    4.36287D+00
       102    5.91371D-14  5.91D-14  0.00D+00  1.00D+00    4.41984D+00
       103    5.09710D-14  5.10D-14  0.00D+00  1.00D+00    4.44850D+00
       104    5.86719D-14  5.87D-14  0.00D+00  1.00D+00    4.61026D+00
       105    2.24819D-13  2.25D-13  0.00D+00  1.00D+00    1.98984D+01
       106    8.48289D-14  8.48D-14  0.00D+00  1.00D+00    1.99875D+01
       107    1.01993D-13  1.02D-13  0.00D+00  1.00D+00    2.04754D+01
       108    8.90459D-14  8.90D-14  0.00D+00  1.00D+00    2.04821D+01
       109    1.75013D-13  1.75D-13  0.00D+00  1.00D+00    2.05232D+01
       110    1.27736D-13  1.28D-13  0.00D+00  1.00D+00    2.05511D+01
       111    1.00531D-13  1.01D-13  0.00D+00  1.00D+00    2.06800D+01
       112    1.43586D-13  1.44D-13  0.00D+00  1.00D+00    2.08033D+01
       113    1.09545D-13  1.10D-13  0.00D+00  1.00D+00    2.08673D+01
       114    1.09809D-13  1.10D-13  0.00D+00  1.00D+00    2.08925D+01
       115    1.02389D-13  1.02D-13  0.00D+00  1.00D+00    2.09212D+01
       116    4.15247D-13  4.15D-13  0.00D+00  1.00D+00    2.09428D+01
       117    2.67068D-13  2.67D-13  0.00D+00  1.00D+00    2.10174D+01
       118    1.34771D-13  1.35D-13  0.00D+00  1.00D+00    2.10309D+01
       119    1.18769D-13  1.19D-13  0.00D+00  1.00D+00    2.13571D+01
       120    5.83467D-13  5.83D-13  0.00D+00  1.00D+00    2.13752D+01

      Root  Residual tot.,    conf., and orb.    Bnorm      Eigenvalue
      ----------------------------------------------------------------
       121    1.02571D-13  1.03D-13  0.00D+00  1.00D+00    2.14804D+01
       122    8.84972D-14  8.85D-14  0.00D+00  1.00D+00    2.15045D+01
       123    7.15328D-14  7.15D-14  0.00D+00  1.00D+00    2.15144D+01
       124    1.08221D-13  1.08D-13  0.00D+00  1.00D+00    2.15151D+01
       125    9.43863D-14  9.44D-14  0.00D+00  1.00D+00    2.15691D+01
       126    4.14572D-13  4.15D-13  0.00D+00  1.00D+00    2.15726D+01
       127    8.46197D-14  8.46D-14  0.00D+00  1.00D+00    2.15750D+01
       128    9.29712D-14  9.30D-14  0.00D+00  1.00D+00    2.15937D+01
       129    3.85087D-13  3.85D-13  0.00D+00  1.00D+00    2.16009D+01
       130    3.39758D-13  3.40D-13  0.00D+00  1.00D+00    2.16377D+01
       131    9.00781D-14  9.01D-14  0.00D+00  1.00D+00    2.16381D+01
       132    1.04136D-13  1.04D-13  0.00D+00  1.00D+00    2.16808D+01
       133    9.99142D-14  9.99D-14  0.00D+00  1.00D+00    2.16993D+01
       134    8.38345D-14  8.38D-14  0.00D+00  1.00D+00    2.17078D+01
       135    1.19065D-13  1.19D-13  0.00D+00  1.00D+00    2.17333D+01
       136    5.38335D-13  5.38D-13  0.00D+00  1.00D+00    2.17459D+01
       137    1.01983D-13  1.02D-13  0.00D+00  1.00D+00    2.17484D+01
       138    1.55101D-12  1.55D-12  0.00D+00  1.00D+00    2.18171D+01
       139    1.00741D-13  1.01D-13  0.00D+00  1.00D+00    2.18378D+01
       140    1.38104D-12  1.38D-12  0.00D+00  1.00D+00    2.18542D+01
       141    1.02190D-13  1.02D-13  0.00D+00  1.00D+00    2.22342D+01
       142    1.01783D-13  1.02D-13  0.00D+00  1.00D+00    2.23016D+01
       143    1.22596D-13  1.23D-13  0.00D+00  1.00D+00    2.23299D+01
       144    2.37299D-13  2.37D-13  0.00D+00  1.00D+00    2.23461D+01
       145    2.08172D-13  2.08D-13  0.00D+00  1.00D+00    2.24260D+01
       146    9.99186D-14  9.99D-14  0.00D+00  1.00D+00    2.24456D+01
       147    1.11693D-13  1.12D-13  0.00D+00  1.00D+00    2.24602D+01
       148    1.40768D-13  1.41D-13  0.00D+00  1.00D+00    2.25391D+01
       149    1.31043D-13  1.31D-13  0.00D+00  1.00D+00    2.25435D+01
       150    2.99054D-13  2.99D-13  0.00D+00  1.00D+00    2.25587D+01
       151    5.51590D-13  5.52D-13  0.00D+00  1.00D+00    2.26321D+01
       152    1.17804D-13  1.18D-13  0.00D+00  1.00D+00    2.26521D+01
       153    1.33102D-13  1.33D-13  0.00D+00  1.00D+00    2.27238D+01
       154    1.40759D-13  1.41D-13  0.00D+00  1.00D+00    2.27419D+01
       155    1.26015D-13  1.26D-13  0.00D+00  1.00D+00    2.27510D+01
       156    1.43277D-13  1.43D-13  0.00D+00  1.00D+00    2.27566D+01
       157    1.48648D-13  1.49D-13  0.00D+00  1.00D+00    2.27735D+01
       158    1.30444D-13  1.30D-13  0.00D+00  1.00D+00    2.28278D+01
       159    1.49754D-13  1.50D-13  0.00D+00  1.00D+00    2.28367D+01
       160    1.17631D-13  1.18D-13  0.00D+00  1.00D+00    2.28652D+01
       161    1.27086D-13  1.27D-13  0.00D+00  1.00D+00    2.31925D+01
       162    3.37671D-13  3.38D-13  0.00D+00  1.00D+00    2.32690D+01
       163    2.04195D-13  2.04D-13  0.00D+00  1.00D+00    2.34793D+01
       164    1.05919D-13  1.06D-13  0.00D+00  1.00D+00    2.34878D+01
       165    1.13204D-13  1.13D-13  0.00D+00  1.00D+00    2.35230D+01
       166    8.81522D-14  8.82D-14  0.00D+00  1.00D+00    2.35551D+01
       167    2.01558D-13  2.02D-13  0.00D+00  1.00D+00    2.35715D+01
       168    1.69769D-13  1.70D-13  0.00D+00  1.00D+00    2.36609D+01
       169    1.75721D-13  1.76D-13  0.00D+00  1.00D+00    2.36878D+01
       170    1.50162D-13  1.50D-13  0.00D+00  1.00D+00    2.36938D+01
       171    1.56890D-13  1.57D-13  0.00D+00  1.00D+00    2.37263D+01
       172    1.43043D-13  1.43D-13  0.00D+00  1.00D+00    2.42219D+01
       173    1.52226D-13  1.52D-13  0.00D+00  1.00D+00    2.42579D+01
       174    2.10393D-13  2.10D-13  0.00D+00  1.00D+00    2.42933D+01
       175    8.75137D-13  8.75D-13  0.00D+00  1.00D+00    4.32249D+01
       176    2.88148D-13  2.88D-13  0.00D+00  1.00D+00    4.36849D+01
       177    2.60814D-12  2.61D-12  0.00D+00  1.00D+00    4.37000D+01
       178    2.19537D-13  2.20D-13  0.00D+00  1.00D+00    4.44190D+01
       179    2.10017D-13  2.10D-13  0.00D+00  1.00D+00    4.44677D+01
       180    2.43569D-13  2.44D-13  0.00D+00  1.00D+00    4.45042D+01
       181    5.17509D-13  5.18D-13  0.00D+00  1.00D+00    4.45320D+01
       182    1.30674D-12  1.31D-12  0.00D+00  1.00D+00    4.46090D+01
       183    1.81888D-13  1.82D-13  0.00D+00  1.00D+00    4.46234D+01
       184    2.15460D-13  2.15D-13  0.00D+00  1.00D+00    4.52652D+01
       185    6.80933D-13  6.81D-13  0.00D+00  1.00D+00    4.53486D+01
       186    2.03286D-13  2.03D-13  0.00D+00  1.00D+00    4.59142D+01
       187    2.95616D-13  2.96D-13  0.00D+00  1.00D+00    4.59309D+01
       188    2.43356D-13  2.43D-13  0.00D+00  1.00D+00    4.59669D+01
       189    1.35738D-13  1.36D-13  0.00D+00  1.00D+00    4.59880D+01
       190    2.48826D-13  2.49D-13  0.00D+00  1.00D+00    4.60043D+01
       191    4.98279D-13  4.98D-13  0.00D+00  1.00D+00    4.60786D+01
       192    3.46694D-13  3.47D-13  0.00D+00  1.00D+00    4.68598D+01
       193    2.53044D-13  2.53D-13  0.00D+00  1.00D+00    4.68904D+01
       194    3.42611D-13  3.43D-13  0.00D+00  1.00D+00    4.69225D+01
       195    2.14016D-13  2.14D-13  0.00D+00  1.00D+00    4.75438D+01
       196    4.66664D-14  4.67D-14  0.00D+00  1.00D+00   -4.27738D-01

 *** THE REQUESTED  195 SOLUTION VECTORS CONVERGED

 Convergence of RSP solution vectors, threshold = 1.00D-03
 ---------------------------------------------------------------
 (dimension of paired reduced space:  390)
 RSP solution vector no.    1; norm of residual   3.53D-14
 RSP solution vector no.    2; norm of residual   3.99D-14
 RSP solution vector no.    3; norm of residual   5.01D-14
 RSP solution vector no.    4; norm of residual   3.26D-14
 RSP solution vector no.    5; norm of residual   3.45D-14
 RSP solution vector no.    6; norm of residual   4.15D-14
 RSP solution vector no.    7; norm of residual   3.09D-14
 RSP solution vector no.    8; norm of residual   4.30D-14
 RSP solution vector no.    9; norm of residual   3.38D-14
 RSP solution vector no.   10; norm of residual   4.34D-14
 RSP solution vector no.   11; norm of residual   3.22D-14
 RSP solution vector no.   12; norm of residual   3.07D-14
 RSP solution vector no.   13; norm of residual   3.25D-14
 RSP solution vector no.   14; norm of residual   5.05D-14
 RSP solution vector no.   15; norm of residual   3.21D-14
 RSP solution vector no.   16; norm of residual   3.13D-14
 RSP solution vector no.   17; norm of residual   4.36D-14
 RSP solution vector no.   18; norm of residual   2.80D-14
 RSP solution vector no.   19; norm of residual   3.20D-14
 RSP solution vector no.   20; norm of residual   4.83D-14
 RSP solution vector no.   21; norm of residual   3.78D-14
 RSP solution vector no.   22; norm of residual   3.34D-14
 RSP solution vector no.   23; norm of residual   2.89D-14
 RSP solution vector no.   24; norm of residual   3.22D-14
 RSP solution vector no.   25; norm of residual   4.08D-14
 RSP solution vector no.   26; norm of residual   2.80D-14
 RSP solution vector no.   27; norm of residual   3.53D-14
 RSP solution vector no.   28; norm of residual   2.99D-14
 RSP solution vector no.   29; norm of residual   3.35D-14
 RSP solution vector no.   30; norm of residual   3.14D-14
 RSP solution vector no.   31; norm of residual   4.09D-14
 RSP solution vector no.   32; norm of residual   3.40D-14
 RSP solution vector no.   33; norm of residual   3.12D-14
 RSP solution vector no.   34; norm of residual   3.84D-14
 RSP solution vector no.   35; norm of residual   3.17D-14
 RSP solution vector no.   36; norm of residual   3.02D-14
 RSP solution vector no.   37; norm of residual   2.92D-14
 RSP solution vector no.   38; norm of residual   3.85D-14
 RSP solution vector no.   39; norm of residual   3.60D-14
 RSP solution vector no.   40; norm of residual   3.51D-14
 RSP solution vector no.   41; norm of residual   2.75D-14
 RSP solution vector no.   42; norm of residual   2.91D-14
 RSP solution vector no.   43; norm of residual   3.28D-14
 RSP solution vector no.   44; norm of residual   3.13D-14
 RSP solution vector no.   45; norm of residual   2.90D-14
 RSP solution vector no.   46; norm of residual   4.47D-14
 RSP solution vector no.   47; norm of residual   3.22D-14
 RSP solution vector no.   48; norm of residual   2.97D-14
 RSP solution vector no.   49; norm of residual   3.88D-14
 RSP solution vector no.   50; norm of residual   2.76D-14
 RSP solution vector no.   51; norm of residual   2.75D-14
 RSP solution vector no.   52; norm of residual   3.07D-14
 RSP solution vector no.   53; norm of residual   3.12D-14
 RSP solution vector no.   54; norm of residual   3.88D-14
 RSP solution vector no.   55; norm of residual   4.09D-14
 RSP solution vector no.   56; norm of residual   4.57D-14
 RSP solution vector no.   57; norm of residual   3.09D-14
 RSP solution vector no.   58; norm of residual   3.58D-14
 RSP solution vector no.   59; norm of residual   3.99D-14
 RSP solution vector no.   60; norm of residual   3.26D-14
 RSP solution vector no.   61; norm of residual   3.19D-14
 RSP solution vector no.   62; norm of residual   4.27D-14
 RSP solution vector no.   63; norm of residual   3.11D-14
 RSP solution vector no.   64; norm of residual   4.00D-14
 RSP solution vector no.   65; norm of residual   4.29D-14
 RSP solution vector no.   66; norm of residual   3.30D-14
 RSP solution vector no.   67; norm of residual   3.48D-14
 RSP solution vector no.   68; norm of residual   3.65D-14
 RSP solution vector no.   69; norm of residual   4.72D-14
 RSP solution vector no.   70; norm of residual   3.80D-14
 RSP solution vector no.   71; norm of residual   5.49D-14
 RSP solution vector no.   72; norm of residual   3.29D-14
 RSP solution vector no.   73; norm of residual   3.76D-14
 RSP solution vector no.   74; norm of residual   4.29D-14
 RSP solution vector no.   75; norm of residual   3.50D-14
 RSP solution vector no.   76; norm of residual   3.87D-14
 RSP solution vector no.   77; norm of residual   5.13D-14
 RSP solution vector no.   78; norm of residual   3.32D-14
 RSP solution vector no.   79; norm of residual   3.80D-14
 RSP solution vector no.   80; norm of residual   4.85D-14
 RSP solution vector no.   81; norm of residual   3.52D-14
 RSP solution vector no.   82; norm of residual   3.88D-14
 RSP solution vector no.   83; norm of residual   5.34D-14
 RSP solution vector no.   84; norm of residual   5.19D-14
 RSP solution vector no.   85; norm of residual   4.36D-14
 RSP solution vector no.   86; norm of residual   4.65D-14
 RSP solution vector no.   87; norm of residual   4.90D-14
 RSP solution vector no.   88; norm of residual   4.77D-14
 RSP solution vector no.   89; norm of residual   6.53D-14
 RSP solution vector no.   90; norm of residual   4.19D-14
 RSP solution vector no.   91; norm of residual   4.66D-14
 RSP solution vector no.   92; norm of residual   3.81D-14
 RSP solution vector no.   93; norm of residual   4.04D-14
 RSP solution vector no.   94; norm of residual   4.34D-14
 RSP solution vector no.   95; norm of residual   5.33D-14
 RSP solution vector no.   96; norm of residual   5.08D-14
 RSP solution vector no.   97; norm of residual   4.26D-14
 RSP solution vector no.   98; norm of residual   5.56D-14
 RSP solution vector no.   99; norm of residual   6.57D-14
 RSP solution vector no.  100; norm of residual   6.40D-14
 RSP solution vector no.  101; norm of residual   6.40D-14
 RSP solution vector no.  102; norm of residual   5.91D-14
 RSP solution vector no.  103; norm of residual   5.10D-14
 RSP solution vector no.  104; norm of residual   5.87D-14
 RSP solution vector no.  105; norm of residual   2.25D-13
 RSP solution vector no.  106; norm of residual   8.48D-14
 RSP solution vector no.  107; norm of residual   1.02D-13
 RSP solution vector no.  108; norm of residual   8.90D-14
 RSP solution vector no.  109; norm of residual   1.75D-13
 RSP solution vector no.  110; norm of residual   1.28D-13
 RSP solution vector no.  111; norm of residual   1.01D-13
 RSP solution vector no.  112; norm of residual   1.44D-13
 RSP solution vector no.  113; norm of residual   1.10D-13
 RSP solution vector no.  114; norm of residual   1.10D-13
 RSP solution vector no.  115; norm of residual   1.02D-13
 RSP solution vector no.  116; norm of residual   4.15D-13
 RSP solution vector no.  117; norm of residual   2.67D-13
 RSP solution vector no.  118; norm of residual   1.35D-13
 RSP solution vector no.  119; norm of residual   1.19D-13
 RSP solution vector no.  120; norm of residual   5.83D-13
 RSP solution vector no.  121; norm of residual   1.03D-13
 RSP solution vector no.  122; norm of residual   8.85D-14
 RSP solution vector no.  123; norm of residual   7.15D-14
 RSP solution vector no.  124; norm of residual   1.08D-13
 RSP solution vector no.  125; norm of residual   9.44D-14
 RSP solution vector no.  126; norm of residual   4.15D-13
 RSP solution vector no.  127; norm of residual   8.46D-14
 RSP solution vector no.  128; norm of residual   9.30D-14
 RSP solution vector no.  129; norm of residual   3.85D-13
 RSP solution vector no.  130; norm of residual   3.40D-13
 RSP solution vector no.  131; norm of residual   9.01D-14
 RSP solution vector no.  132; norm of residual   1.04D-13
 RSP solution vector no.  133; norm of residual   9.99D-14
 RSP solution vector no.  134; norm of residual   8.38D-14
 RSP solution vector no.  135; norm of residual   1.19D-13
 RSP solution vector no.  136; norm of residual   5.38D-13
 RSP solution vector no.  137; norm of residual   1.02D-13
 RSP solution vector no.  138; norm of residual   1.55D-12
 RSP solution vector no.  139; norm of residual   1.01D-13
 RSP solution vector no.  140; norm of residual   1.38D-12
 RSP solution vector no.  141; norm of residual   1.02D-13
 RSP solution vector no.  142; norm of residual   1.02D-13
 RSP solution vector no.  143; norm of residual   1.23D-13
 RSP solution vector no.  144; norm of residual   2.37D-13
 RSP solution vector no.  145; norm of residual   2.08D-13
 RSP solution vector no.  146; norm of residual   9.99D-14
 RSP solution vector no.  147; norm of residual   1.12D-13
 RSP solution vector no.  148; norm of residual   1.41D-13
 RSP solution vector no.  149; norm of residual   1.31D-13
 RSP solution vector no.  150; norm of residual   2.99D-13
 RSP solution vector no.  151; norm of residual   5.52D-13
 RSP solution vector no.  152; norm of residual   1.18D-13
 RSP solution vector no.  153; norm of residual   1.33D-13
 RSP solution vector no.  154; norm of residual   1.41D-13
 RSP solution vector no.  155; norm of residual   1.26D-13
 RSP solution vector no.  156; norm of residual   1.43D-13
 RSP solution vector no.  157; norm of residual   1.49D-13
 RSP solution vector no.  158; norm of residual   1.30D-13
 RSP solution vector no.  159; norm of residual   1.50D-13
 RSP solution vector no.  160; norm of residual   1.18D-13
 RSP solution vector no.  161; norm of residual   1.27D-13
 RSP solution vector no.  162; norm of residual   3.38D-13
 RSP solution vector no.  163; norm of residual   2.04D-13
 RSP solution vector no.  164; norm of residual   1.06D-13
 RSP solution vector no.  165; norm of residual   1.13D-13
 RSP solution vector no.  166; norm of residual   8.82D-14
 RSP solution vector no.  167; norm of residual   2.02D-13
 RSP solution vector no.  168; norm of residual   1.70D-13
 RSP solution vector no.  169; norm of residual   1.76D-13
 RSP solution vector no.  170; norm of residual   1.50D-13
 RSP solution vector no.  171; norm of residual   1.57D-13
 RSP solution vector no.  172; norm of residual   1.43D-13
 RSP solution vector no.  173; norm of residual   1.52D-13
 RSP solution vector no.  174; norm of residual   2.10D-13
 RSP solution vector no.  175; norm of residual   8.75D-13
 RSP solution vector no.  176; norm of residual   2.88D-13
 RSP solution vector no.  177; norm of residual   2.61D-12
 RSP solution vector no.  178; norm of residual   2.20D-13
 RSP solution vector no.  179; norm of residual   2.10D-13
 RSP solution vector no.  180; norm of residual   2.44D-13
 RSP solution vector no.  181; norm of residual   5.18D-13
 RSP solution vector no.  182; norm of residual   1.31D-12
 RSP solution vector no.  183; norm of residual   1.82D-13
 RSP solution vector no.  184; norm of residual   2.15D-13
 RSP solution vector no.  185; norm of residual   6.81D-13
 RSP solution vector no.  186; norm of residual   2.03D-13
 RSP solution vector no.  187; norm of residual   2.96D-13
 RSP solution vector no.  188; norm of residual   2.43D-13
 RSP solution vector no.  189; norm of residual   1.36D-13
 RSP solution vector no.  190; norm of residual   2.49D-13
 RSP solution vector no.  191; norm of residual   4.98D-13
 RSP solution vector no.  192; norm of residual   3.47D-13
 RSP solution vector no.  193; norm of residual   2.53D-13
 RSP solution vector no.  194; norm of residual   3.43D-13
 RSP solution vector no.  195; norm of residual   2.14D-13

 *** RSPCTL MICROITERATIONS CONVERGED

@ Singlet transition operator label: XDIPLEN 
@ STATE NO:    1 *TRANSITION MOMENT:  1.02115613E-15 *ENERGY(eV):   11.639347    
@ STATE NO:    2 *TRANSITION MOMENT: -3.94288811E-14 *ENERGY(eV):   14.318966    
@ STATE NO:    3 *TRANSITION MOMENT: -0.40904877     *ENERGY(eV):   15.315771    
@ STATE NO:    4 *TRANSITION MOMENT: -1.22317988E-14 *ENERGY(eV):   18.266074    
@ STATE NO:    5 *TRANSITION MOMENT: -4.33217325E-14 *ENERGY(eV):   22.003340    
@ STATE NO:    6 *TRANSITION MOMENT: -0.28760303     *ENERGY(eV):   26.050457    
@ STATE NO:    7 *TRANSITION MOMENT:  2.29987394E-14 *ENERGY(eV):   28.065323    
@ STATE NO:    8 *TRANSITION MOMENT: -0.76250971     *ENERGY(eV):   28.554715    
@ STATE NO:    9 *TRANSITION MOMENT: -3.75521519E-14 *ENERGY(eV):   28.929401    
@ STATE NO:   10 *TRANSITION MOMENT:  8.24803054E-03 *ENERGY(eV):   30.801716    
@ STATE NO:   11 *TRANSITION MOMENT:  5.56977419E-15 *ENERGY(eV):   33.059002    
@ STATE NO:   12 *TRANSITION MOMENT:  3.43985171E-15 *ENERGY(eV):   34.105586    
@ STATE NO:   13 *TRANSITION MOMENT:  1.38864642E-13 *ENERGY(eV):   35.624929    
@ STATE NO:   14 *TRANSITION MOMENT:  0.16218960     *ENERGY(eV):   35.755617    
@ STATE NO:   15 *TRANSITION MOMENT:  1.91536212E-14 *ENERGY(eV):   36.563431    

@ Singlet transition operator label: YDIPLEN 
@ STATE NO:    1 *TRANSITION MOMENT: -9.76930101E-15 *ENERGY(eV):   11.639347    
@ STATE NO:    2 *TRANSITION MOMENT:  1.18793257E-14 *ENERGY(eV):   14.318966    
@ STATE NO:    3 *TRANSITION MOMENT:  4.86406682E-14 *ENERGY(eV):   15.315771    
@ STATE NO:    4 *TRANSITION MOMENT: -0.38490174     *ENERGY(eV):   18.266074    
@ STATE NO:    5 *TRANSITION MOMENT:   1.4039309     *ENERGY(eV):   22.003340    
@ STATE NO:    6 *TRANSITION MOMENT: -5.22218178E-14 *ENERGY(eV):   26.050457    
@ STATE NO:    7 *TRANSITION MOMENT:  1.85958568E-15 *ENERGY(eV):   28.065323    
@ STATE NO:    8 *TRANSITION MOMENT: -9.44213263E-14 *ENERGY(eV):   28.554715    
@ STATE NO:    9 *TRANSITION MOMENT:  8.67830178E-16 *ENERGY(eV):   28.929401    
@ STATE NO:   10 *TRANSITION MOMENT: -2.48771214E-15 *ENERGY(eV):   30.801716    
@ STATE NO:   11 *TRANSITION MOMENT:  3.51846117E-15 *ENERGY(eV):   33.059002    
@ STATE NO:   12 *TRANSITION MOMENT: -0.15934376     *ENERGY(eV):   34.105586    
@ STATE NO:   13 *TRANSITION MOMENT:  5.80684406E-02 *ENERGY(eV):   35.624929    
@ STATE NO:   14 *TRANSITION MOMENT: -3.75632419E-14 *ENERGY(eV):   35.755617    
@ STATE NO:   15 *TRANSITION MOMENT: -5.64478370E-15 *ENERGY(eV):   36.563431    

@ Singlet transition operator label: ZDIPLEN 
@ STATE NO:    1 *TRANSITION MOMENT: -0.10736498     *ENERGY(eV):   11.639347    
@ STATE NO:    2 *TRANSITION MOMENT:  7.35256435E-16 *ENERGY(eV):   14.318966    
@ STATE NO:    3 *TRANSITION MOMENT: -4.29993319E-15 *ENERGY(eV):   15.315771    
@ STATE NO:    4 *TRANSITION MOMENT: -4.70547153E-15 *ENERGY(eV):   18.266074    
@ STATE NO:    5 *TRANSITION MOMENT: -8.27469969E-16 *ENERGY(eV):   22.003340    
@ STATE NO:    6 *TRANSITION MOMENT: -4.28761969E-15 *ENERGY(eV):   26.050457    
@ STATE NO:    7 *TRANSITION MOMENT: -1.47527966E-02 *ENERGY(eV):   28.065323    
@ STATE NO:    8 *TRANSITION MOMENT: -2.35577892E-15 *ENERGY(eV):   28.554715    
@ STATE NO:    9 *TRANSITION MOMENT:  3.86780100E-15 *ENERGY(eV):   28.929401    
@ STATE NO:   10 *TRANSITION MOMENT:  3.40965051E-16 *ENERGY(eV):   30.801716    
@ STATE NO:   11 *TRANSITION MOMENT:  4.84399908E-16 *ENERGY(eV):   33.059002    
@ STATE NO:   12 *TRANSITION MOMENT:  6.53154618E-15 *ENERGY(eV):   34.105586    
@ STATE NO:   13 *TRANSITION MOMENT: -2.91954716E-15 *ENERGY(eV):   35.624929    
@ STATE NO:   14 *TRANSITION MOMENT: -8.64419394E-15 *ENERGY(eV):   35.755617    
@ STATE NO:   15 *TRANSITION MOMENT:  4.94206044E-15 *ENERGY(eV):   36.563431    


 **************************************************************************************
 *** @ Excit. operator sym 1 & ref. state sym 1 => excited state symmetry 1  ( A  ) ***
 **************************************************************************************



 @ Excited state no:    1 in symmetry 1  ( A  ) - singlet excitation
 -------------------------------------------------------------------

@ Excitation energy :  0.42773814     au
@                       11.639347     eV;   93877.671     cm-1;   1123.0263     kJ / mol

@ Total energy :       -74.586014     au

@ Operator label: XDIPLEN ; Transition moment :  1.02115613E-15 au
@ Oscillator strength (LENGTH)   :  2.97352109E-31  (X-polarization)

@ Operator label: YDIPLEN ; Transition moment : -9.76930101E-15 au
@ Oscillator strength (LENGTH)   :  2.72153362E-29  (Y-polarization)

@ Operator label: ZDIPLEN ; Transition moment : -0.10736498     au
@ Oscillator strength (LENGTH)   :  3.28709299E-03  (Z-polarization)
@ Total oscillator strength (LENGTH)   :  3.28709299E-03

 Eigenvector for state no.  1

      Index(conf)                         Z operator          Y operator
      ----------                      --------------      --------------
          22                           -0.9674161078        0.0000000000
         130                            0.1746830002        0.0000000000

      194 elements with absolute value ≤ 1.00D-01 are not printed.

 Printout of coefficients in interval  3.1623E-01 to  1.0000E+00
 ===============================================================

  Coefficient of CSF no.        22 is     -0.96741611   -9.67416108E-01
  Orbital          1   2   3   4   5   6
  Spin coupling    2   2   2   2   1  -1

 Printout of coefficients in interval  1.0000E-01 to  3.1623E-01
 ===============================================================

  Coefficient of CSF no.       130 is      0.17468300    1.74683000E-01
  Orbital          1   2   4   3   5   6   7
  Spin coupling    2   2   2   1  -1   1  -1

 Printout of coefficients in interval  1.0000E-01 to  1.0000E-01
 ===============================================================
   ( no coefficients )

 Norm of printed CI vector ..      0.96640808

 Magnitude of CI coefficients
 ============================
 ( Ranges are relative to norm of vector :  1.00E+00 )

  10- 1 to 10- 0         2    0.96640808E+00      0.9664080761
  10- 2 to 10- 1        12    0.33425521E-01      0.9998335969
  10- 3 to 10- 2         6    0.16433848E-03      0.9999979354
  10- 4 to 10- 3         7    0.20342493E-05      0.9999999696
  10- 5 to 10- 4         8    0.30310163E-07      0.9999999999
  10- 6 to 10- 5         1    0.74336798E-10      1.0000000000
  Number of coefficients less than 10^-11 times norm is          160


 @ Excited state no:    2 in symmetry 1  ( A  ) - singlet excitation
 -------------------------------------------------------------------

@ Excitation energy :  0.52621235     au
@                       14.318966     eV;   115490.26     cm-1;   1381.5703     kJ / mol

@ Total energy :       -74.487540     au

@ Operator label: XDIPLEN ; Transition moment : -3.94288811E-14 au
@ Oscillator strength (LENGTH)   :  5.45379338E-28  (X-polarization)

@ Operator label: YDIPLEN ; Transition moment :  1.18793257E-14 au
@ Oscillator strength (LENGTH)   :  4.95054892E-29  (Y-polarization)

@ Operator label: ZDIPLEN ; Transition moment :  7.35256435E-16 au
@ Oscillator strength (LENGTH)   :  1.89647640E-31  (Z-polarization)
@ Total oscillator strength (LENGTH)   :  5.95074475E-28

 Eigenvector for state no.  2

      Index(conf)                         Z operator          Y operator
      ----------                      --------------      --------------
          23                           -0.9688324400        0.0000000000
          40                            0.1011824432        0.0000000000
          70                            0.1162295348        0.0000000000
         128                           -0.1263759584        0.0000000000

      192 elements with absolute value ≤ 1.00D-01 are not printed.

 Printout of coefficients in interval  3.1623E-01 to  1.0000E+00
 ===============================================================

  Coefficient of CSF no.        23 is     -0.96883244   -9.68832440E-01
  Orbital          1   2   3   4   5   7
  Spin coupling    2   2   2   2   1  -1

 Printout of coefficients in interval  1.0000E-01 to  3.1623E-01
 ===============================================================

  Coefficient of CSF no.        40 is      0.10118244    1.01182443E-01
  Orbital          1   2   4   6   3   5
  Spin coupling    2   2   2   2   1  -1

  Coefficient of CSF no.        70 is      0.11622953    1.16229535E-01
  Orbital          1   2   4   7   3   5
  Spin coupling    2   2   2   2   1  -1

  Coefficient of CSF no.       128 is     -0.12637596   -1.26375958E-01
  Orbital          1   2   3   4   5   6   7
  Spin coupling    2   2   2   1  -1   1  -1

 Norm of printed CI vector ..      0.97835437

 Magnitude of CI coefficients
 ============================
 ( Ranges are relative to norm of vector :  1.00E+00 )

  10- 1 to 10- 0         4    0.97835437E+00      0.9783543712
  10- 2 to 10- 1        12    0.21494793E-01      0.9998491643
  10- 3 to 10- 2         3    0.14909412E-03      0.9999982584
  10- 4 to 10- 3         9    0.17387916E-05      0.9999999972
  10- 5 to 10- 4         4    0.26891782E-08      0.9999999999
  10- 6 to 10- 5         2    0.97423535E-10      1.0000000000
  Number of coefficients less than 10^-11 times norm is          162


 @ Excited state no:    3 in symmetry 1  ( A  ) - singlet excitation
 -------------------------------------------------------------------

@ Excitation energy :  0.56284425     au
@                       15.315771     eV;   123530.03     cm-1;   1477.7474     kJ / mol

@ Total energy :       -74.450908     au

@ Operator label: XDIPLEN ; Transition moment : -0.40904877     au
@ Oscillator strength (LENGTH)   :  6.27837364E-02  (X-polarization)

@ Operator label: YDIPLEN ; Transition moment :  4.86406682E-14 au
@ Oscillator strength (LENGTH)   :  8.87760961E-28  (Y-polarization)

@ Operator label: ZDIPLEN ; Transition moment : -4.29993319E-15 au
@ Oscillator strength (LENGTH)   :  6.93777790E-30  (Z-polarization)
@ Total oscillator strength (LENGTH)   :  6.27837364E-02

 Eigenvector for state no.  3

      Index(conf)                         Z operator          Y operator
      ----------                      --------------      --------------
           3                           -0.1064899842        0.0000000000
          25                            0.9488873284        0.0000000000
          29                            0.1849972037        0.0000000000
         136                           -0.1349577371        0.0000000000

      192 elements with absolute value ≤ 1.00D-01 are not printed.

 Printout of coefficients in interval  3.1623E-01 to  1.0000E+00
 ===============================================================

  Coefficient of CSF no.        25 is      0.94888733    9.48887328E-01
  Orbital          1   2   3   5   4   6
  Spin coupling    2   2   2   2   1  -1

 Printout of coefficients in interval  1.0000E-01 to  3.1623E-01
 ===============================================================

  Coefficient of CSF no.         3 is     -0.10648998   -1.06489984E-01
  Orbital          1   2   3   5   6
  Spin coupling    2   2   2   2   2

  Coefficient of CSF no.        29 is      0.18499720    1.84997204E-01
  Orbital          1   2   4   5   3   7
  Spin coupling    2   2   2   2   1  -1

  Coefficient of CSF no.       136 is     -0.13495774   -1.34957737E-01
  Orbital          1   2   5   3   4   6   7
  Spin coupling    2   2   2   1  -1   1  -1

 Norm of printed CI vector ..      0.96416483

 Magnitude of CI coefficients
 ============================
 ( Ranges are relative to norm of vector :  1.00E+00 )

  10- 1 to 10- 0         4    0.96416483E+00      0.9641648349
  10- 2 to 10- 1        19    0.35471524E-01      0.9996363594
  10- 3 to 10- 2        11    0.35885120E-03      0.9999952106
  10- 4 to 10- 3        20    0.47674080E-05      0.9999999780
  10- 5 to 10- 4        13    0.21766741E-07      0.9999999998
  10- 6 to 10- 5         3    0.23409974E-09      1.0000000000
  Number of coefficients less than 10^-11 times norm is          126


 @ Excited state no:    4 in symmetry 1  ( A  ) - singlet excitation
 -------------------------------------------------------------------

@ Excitation energy :  0.67126590     au
@                       18.266074     eV;   147325.83     cm-1;   1762.4083     kJ / mol

@ Total energy :       -74.342487     au

@ Operator label: XDIPLEN ; Transition moment : -1.22317988E-14 au
@ Oscillator strength (LENGTH)   :  6.69551488E-29  (X-polarization)

@ Operator label: YDIPLEN ; Transition moment : -0.38490174     au
@ Oscillator strength (LENGTH)   :  6.62984043E-02  (Y-polarization)

@ Operator label: ZDIPLEN ; Transition moment : -4.70547153E-15 au
@ Oscillator strength (LENGTH)   :  9.90853906E-30  (Z-polarization)
@ Total oscillator strength (LENGTH)   :  6.62984043E-02

 Eigenvector for state no.  4

      Index(conf)                         Z operator          Y operator
      ----------                      --------------      --------------
          26                           -0.8927346666        0.0000000000
          27                            0.1620568547        0.0000000000
          28                           -0.3746077851        0.0000000000
          49                            0.1250944754        0.0000000000

      192 elements with absolute value ≤ 1.00D-01 are not printed.

 Printout of coefficients in interval  3.1623E-01 to  1.0000E+00
 ===============================================================

  Coefficient of CSF no.        26 is     -0.89273467   -8.92734667E-01
  Orbital          1   2   3   5   4   7
  Spin coupling    2   2   2   2   1  -1

  Coefficient of CSF no.        28 is     -0.37460779   -3.74607785E-01
  Orbital          1   2   4   5   3   6
  Spin coupling    2   2   2   2   1  -1

 Printout of coefficients in interval  1.0000E-01 to  3.1623E-01
 ===============================================================

  Coefficient of CSF no.        27 is      0.16205685    1.62056855E-01
  Orbital          1   2   3   5   6   7
  Spin coupling    2   2   2   2   1  -1

  Coefficient of CSF no.        49 is      0.12509448    1.25094475E-01
  Orbital          1   2   5   6   3   4
  Spin coupling    2   2   2   2   1  -1

 Norm of printed CI vector ..      0.97921723

 Magnitude of CI coefficients
 ============================
 ( Ranges are relative to norm of vector :  1.00E+00 )

  10- 1 to 10- 0         4    0.97921723E+00      0.9792172295
[...]
  Orbital          2   4   5   6   7
  Spin coupling    2   2   2   2   2

  Coefficient of CSF no.        63 is     -0.24107463   -2.41074631E-01
  Orbital          2   4   5   6   3   7
  Spin coupling    2   2   2   2   1  -1

  Coefficient of CSF no.        96 is      0.10840179    1.08401793E-01
  Orbital          3   4   5   7   2   6
  Spin coupling    2   2   2   2   1  -1

  Coefficient of CSF no.       123 is     -0.23038687   -2.30386866E-01
  Orbital          3   5   6   7   2   4
  Spin coupling    2   2   2   2   1  -1

 Norm of printed CI vector ..      0.99473934

 Magnitude of CI coefficients
 ============================
 ( Ranges are relative to norm of vector :  1.00E+00 )

  10- 1 to 10- 0         9    0.99473934E+00      0.9947393442
  10- 2 to 10- 1         4    0.49727013E-02      0.9997120455
  10- 3 to 10- 2        19    0.28433784E-03      0.9999963833
  10- 4 to 10- 3        29    0.35940035E-05      0.9999999773
  10- 5 to 10- 4         7    0.22644911E-07      1.0000000000
  10- 6 to 10- 5         2    0.13753151E-10      1.0000000000
  Number of coefficients less than 10^-11 times norm is          126


 @ Excited state no:  190 in symmetry 1  ( A  ) - singlet excitation
 -------------------------------------------------------------------

@ Excitation energy :   46.004308     au
@                       1251.8409     eV;   10096778.     cm-1;   120784.29     kJ / mol

@ Total energy :       -29.009444     au

@ Operator label: XDIPLEN ; Transition moment : -2.99555844E-17 au
@ Oscillator strength (LENGTH)   :  2.75209130E-32  (X-polarization)

@ Operator label: YDIPLEN ; Transition moment : -5.57508615E-05 au
@ Oscillator strength (LENGTH)   :  9.53257893E-08  (Y-polarization)

@ Operator label: ZDIPLEN ; Transition moment :  4.91224076E-18 au
@ Oscillator strength (LENGTH)   :  7.40059322E-34  (Z-polarization)
@ Total oscillator strength (LENGTH)   :  9.53257893E-08

 Eigenvector for state no.190

      Index(conf)                         Z operator          Y operator
      ----------                      --------------      --------------
          36                            0.1967608132        0.0000000000
          57                           -0.4754245003        0.0000000000
          93                            0.3263505608        0.0000000000
         120                           -0.7617665725        0.0000000000
         126                            0.2146475868        0.0000000000

      191 elements with absolute value ≤ 1.00D-01 are not printed.

 Printout of coefficients in interval  3.1623E-01 to  1.0000E+00
 ===============================================================

  Coefficient of CSF no.        57 is     -0.47542450   -4.75424500E-01
  Orbital          2   3   5   6   4   7
  Spin coupling    2   2   2   2   1  -1

  Coefficient of CSF no.        93 is      0.32635056    3.26350561E-01
  Orbital          2   4   5   7   3   6
  Spin coupling    2   2   2   2   1  -1

  Coefficient of CSF no.       120 is     -0.76176657   -7.61766572E-01
  Orbital          2   5   6   7   3   4
  Spin coupling    2   2   2   2   1  -1

 Printout of coefficients in interval  1.0000E-01 to  3.1623E-01
 ===============================================================

  Coefficient of CSF no.        36 is      0.19676081    1.96760813E-01
  Orbital          2   3   4   5   6   7
  Spin coupling    2   2   2   2   1  -1

  Coefficient of CSF no.       126 is      0.21464759    2.14647587E-01
  Orbital          4   5   6   7   2   3
  Spin coupling    2   2   2   2   1  -1

 Norm of printed CI vector ..      0.99760986

 Magnitude of CI coefficients
 ============================
 ( Ranges are relative to norm of vector :  1.00E+00 )

  10- 1 to 10- 0         5    0.99760986E+00      0.9976098592
  10- 2 to 10- 1         4    0.21501600E-02      0.9997600191
  10- 3 to 10- 2        14    0.23605100E-03      0.9999960701
  10- 4 to 10- 3        25    0.38889964E-05      0.9999999591
  10- 5 to 10- 4         8    0.40860360E-07      1.0000000000
  Number of coefficients less than 10^-11 times norm is          140


 @ Excited state no:  191 in symmetry 1  ( A  ) - singlet excitation
 -------------------------------------------------------------------

@ Excitation energy :   46.078634     au
@                       1253.8634     eV;   10113091.     cm-1;   120979.43     kJ / mol

@ Total energy :       -28.935119     au

@ Operator label: XDIPLEN ; Transition moment :  5.42314260E-05 au
@ Oscillator strength (LENGTH)   :  9.03463026E-08  (X-polarization)

@ Operator label: YDIPLEN ; Transition moment : -1.76906129E-16 au
@ Oscillator strength (LENGTH)   :  9.61377813E-31  (Y-polarization)

@ Operator label: ZDIPLEN ; Transition moment :  6.77422146E-19 au
@ Oscillator strength (LENGTH)   :  1.40970135E-35  (Z-polarization)
@ Total oscillator strength (LENGTH)   :  9.03463026E-08

 Eigenvector for state no.191

      Index(conf)                         Z operator          Y operator
      ----------                      --------------      --------------
           6                            0.2592239362        0.0000000000
          15                            0.2032288246        0.0000000000
          18                            0.2525915583        0.0000000000
          20                            0.6606037569        0.0000000000
          21                           -0.1546932850        0.0000000000
          63                           -0.5607777754        0.0000000000
          87                            0.1683623869        0.0000000000
         123                            0.1435867258        0.0000000000

      188 elements with absolute value ≤ 1.00D-01 are not printed.

 Printout of coefficients in interval  3.1623E-01 to  1.0000E+00
 ===============================================================

  Coefficient of CSF no.        20 is      0.66060376    6.60603757E-01
  Orbital          2   4   5   6   7
  Spin coupling    2   2   2   2   2

  Coefficient of CSF no.        63 is     -0.56077778   -5.60777775E-01
  Orbital          2   4   5   6   3   7
  Spin coupling    2   2   2   2   1  -1

 Printout of coefficients in interval  1.0000E-01 to  3.1623E-01
 ===============================================================

  Coefficient of CSF no.         6 is      0.25922394    2.59223936E-01
  Orbital          2   3   4   5   6
  Spin coupling    2   2   2   2   2

  Coefficient of CSF no.        15 is      0.20322882    2.03228825E-01
  Orbital          2   3   4   6   7
  Spin coupling    2   2   2   2   2

  Coefficient of CSF no.        18 is      0.25259156    2.52591558E-01
  Orbital          2   3   5   6   7
  Spin coupling    2   2   2   2   2

  Coefficient of CSF no.        21 is     -0.15469328   -1.54693285E-01
  Orbital          3   4   5   6   7
  Spin coupling    2   2   2   2   2

  Coefficient of CSF no.        87 is      0.16836239    1.68362387E-01
  Orbital          2   3   5   7   4   6
  Spin coupling    2   2   2   2   1  -1

  Coefficient of CSF no.       123 is      0.14358673    1.43586726E-01
  Orbital          3   5   6   7   2   4
  Spin coupling    2   2   2   2   1  -1

 Norm of printed CI vector ..      0.99606359

 Magnitude of CI coefficients
 ============================
 ( Ranges are relative to norm of vector :  1.00E+00 )

  10- 1 to 10- 0         8    0.99606359E+00      0.9960635901
  10- 2 to 10- 1         3    0.34948348E-02      0.9995584249
  10- 3 to 10- 2        21    0.43611149E-03      0.9999945363
  10- 4 to 10- 3        30    0.54338871E-05      0.9999999702
  10- 5 to 10- 4         8    0.29762992E-07      1.0000000000
  Number of coefficients less than 10^-11 times norm is          126


 @ Excited state no:  192 in symmetry 1  ( A  ) - singlet excitation
 -------------------------------------------------------------------

@ Excitation energy :   46.859849     au
@                       1275.1213     eV;   10284548.     cm-1;   123030.51     kJ / mol

@ Total energy :       -28.153904     au

@ Operator label: XDIPLEN ; Transition moment : -1.22495582E-16 au
@ Oscillator strength (LENGTH)   :  4.68759924E-31  (X-polarization)

@ Operator label: YDIPLEN ; Transition moment :  1.07054147E-16 au
@ Oscillator strength (LENGTH)   :  3.58027688E-31  (Y-polarization)

@ Operator label: ZDIPLEN ; Transition moment :  4.38391697E-07 au
@ Oscillator strength (LENGTH)   :  6.00391125E-12  (Z-polarization)
@ Total oscillator strength (LENGTH)   :  6.00391125E-12

 Eigenvector for state no.192

      Index(conf)                         Z operator          Y operator
      ----------                      --------------      --------------
          78                           -0.1990448524        0.0000000000
         105                           -0.2856193962        0.0000000000
         114                           -0.9371141572        0.0000000000

      193 elements with absolute value ≤ 1.00D-01 are not printed.

 Printout of coefficients in interval  3.1623E-01 to  1.0000E+00
 ===============================================================

  Coefficient of CSF no.       114 is     -0.93711416   -9.37114157E-01
  Orbital          3   4   6   7   2   5
  Spin coupling    2   2   2   2   1  -1

 Printout of coefficients in interval  1.0000E-01 to  3.1623E-01
 ===============================================================

  Coefficient of CSF no.        78 is     -0.19904485   -1.99044852E-01
  Orbital          2   3   4   7   5   6
  Spin coupling    2   2   2   2   1  -1

  Coefficient of CSF no.       105 is     -0.28561940   -2.85619396E-01
  Orbital          2   3   6   7   4   5
  Spin coupling    2   2   2   2   1  -1

 Norm of printed CI vector ..      0.99938024

 Magnitude of CI coefficients
 ============================
 ( Ranges are relative to norm of vector :  1.00E+00 )

  10- 1 to 10- 0         3    0.99938024E+00      0.9993802364
  10- 2 to 10- 1         2    0.51126516E-03      0.9998915016
  10- 3 to 10- 2         5    0.10407698E-03      0.9999955786
  10- 4 to 10- 3        18    0.43854437E-05      0.9999999640
  10- 5 to 10- 4         8    0.35966910E-07      1.0000000000
  Number of coefficients less than 10^-11 times norm is          160


 @ Excited state no:  193 in symmetry 1  ( A  ) - singlet excitation
 -------------------------------------------------------------------

@ Excitation energy :   46.890398     au
@                       1275.9526     eV;   10291253.     cm-1;   123110.72     kJ / mol

@ Total energy :       -28.123355     au

@ Operator label: XDIPLEN ; Transition moment :  2.05916400E-05 au
@ Oscillator strength (LENGTH)   :  1.32548413E-08  (X-polarization)

@ Operator label: YDIPLEN ; Transition moment : -3.56306343E-18 au
@ Oscillator strength (LENGTH)   :  3.96862228E-34  (Y-polarization)

@ Operator label: ZDIPLEN ; Transition moment : -5.13047269E-18 au
@ Oscillator strength (LENGTH)   :  8.22824890E-34  (Z-polarization)
@ Total oscillator strength (LENGTH)   :  1.32548413E-08

 Eigenvector for state no.193

      Index(conf)                         Z operator          Y operator
      ----------                      --------------      --------------
          11                            0.1153580849        0.0000000000
          18                           -0.3529748195        0.0000000000
          21                            0.2569377362        0.0000000000
          96                           -0.4119117799        0.0000000000
         123                            0.7889390859        0.0000000000

      191 elements with absolute value ≤ 1.00D-01 are not printed.

 Printout of coefficients in interval  3.1623E-01 to  1.0000E+00
 ===============================================================

  Coefficient of CSF no.        18 is     -0.35297482   -3.52974820E-01
  Orbital          2   3   5   6   7
  Spin coupling    2   2   2   2   2

  Coefficient of CSF no.        96 is     -0.41191178   -4.11911780E-01
  Orbital          3   4   5   7   2   6
  Spin coupling    2   2   2   2   1  -1

  Coefficient of CSF no.       123 is      0.78893909    7.88939086E-01
  Orbital          3   5   6   7   2   4
  Spin coupling    2   2   2   2   1  -1

 Printout of coefficients in interval  1.0000E-01 to  3.1623E-01
 ===============================================================

  Coefficient of CSF no.        11 is      0.11535808    1.15358085E-01
  Orbital          2   3   4   5   7
  Spin coupling    2   2   2   2   2

  Coefficient of CSF no.        21 is      0.25693774    2.56937736E-01
  Orbital          3   4   5   6   7
  Spin coupling    2   2   2   2   2

 Norm of printed CI vector ..      0.99601191

 Magnitude of CI coefficients
 ============================
 ( Ranges are relative to norm of vector :  1.00E+00 )

  10- 1 to 10- 0         5    0.99601191E+00      0.9960119069
  10- 2 to 10- 1         4    0.36864284E-02      0.9996983353
  10- 3 to 10- 2        10    0.29757055E-03      0.9999959058
  10- 4 to 10- 3        33    0.40584218E-05      0.9999999643
  10- 5 to 10- 4        13    0.35593172E-07      0.9999999999
  10- 6 to 10- 5         5    0.14210081E-09      1.0000000000
  Number of coefficients less than 10^-11 times norm is          126


 @ Excited state no:  194 in symmetry 1  ( A  ) - singlet excitation
 -------------------------------------------------------------------

@ Excitation energy :   46.922476     au
@                       1276.8255     eV;   10298293.     cm-1;   123194.94     kJ / mol

@ Total energy :       -28.091277     au

@ Operator label: XDIPLEN ; Transition moment : -1.08908992E-16 au
@ Oscillator strength (LENGTH)   :  3.71036930E-31  (X-polarization)

@ Operator label: YDIPLEN ; Transition moment :  3.13393052E-05 au
@ Oscillator strength (LENGTH)   :  3.07233373E-08  (Y-polarization)

@ Operator label: ZDIPLEN ; Transition moment :  7.98004426E-18 au
@ Oscillator strength (LENGTH)   :  1.99205013E-33  (Z-polarization)
@ Total oscillator strength (LENGTH)   :  3.07233373E-08

 Eigenvector for state no.194

      Index(conf)                         Z operator          Y operator
      ----------                      --------------      --------------
          57                           -0.1671091243        0.0000000000
          66                           -0.4937003410        0.0000000000
          93                           -0.1478585156        0.0000000000
         120                           -0.2336755894        0.0000000000
         126                           -0.8013211648        0.0000000000

      191 elements with absolute value ≤ 1.00D-01 are not printed.

 Printout of coefficients in interval  3.1623E-01 to  1.0000E+00
 ===============================================================

  Coefficient of CSF no.        66 is     -0.49370034   -4.93700341E-01
  Orbital          3   4   5   6   2   7
  Spin coupling    2   2   2   2   1  -1

  Coefficient of CSF no.       126 is     -0.80132116   -8.01321165E-01
  Orbital          4   5   6   7   2   3
  Spin coupling    2   2   2   2   1  -1

 Printout of coefficients in interval  1.0000E-01 to  3.1623E-01
 ===============================================================

  Coefficient of CSF no.        57 is     -0.16710912   -1.67109124E-01
  Orbital          2   3   5   6   4   7
  Spin coupling    2   2   2   2   1  -1

  Coefficient of CSF no.        93 is     -0.14785852   -1.47858516E-01
  Orbital          2   4   5   7   3   6
  Spin coupling    2   2   2   2   1  -1

  Coefficient of CSF no.       120 is     -0.23367559   -2.33675589E-01
  Orbital          2   5   6   7   3   4
  Spin coupling    2   2   2   2   1  -1

 Norm of printed CI vector ..      0.99024752

 Magnitude of CI coefficients
 ============================
 ( Ranges are relative to norm of vector :  1.00E+00 )

  10- 1 to 10- 0         5    0.99024752E+00      0.9902475170
  10- 2 to 10- 1         4    0.95946987E-02      0.9998422157
  10- 3 to 10- 2        11    0.15301847E-03      0.9999952342
  10- 4 to 10- 3        24    0.47214716E-05      0.9999999557
  10- 5 to 10- 4        12    0.44334699E-07      1.0000000000
  Number of coefficients less than 10^-11 times norm is          140


 @ Excited state no:  195 in symmetry 1  ( A  ) - singlet excitation
 -------------------------------------------------------------------

@ Excitation energy :   47.543755     au
@                       1293.7314     eV;   10434648.     cm-1;   124826.11     kJ / mol

@ Total energy :       -27.469997     au

@ Operator label: XDIPLEN ; Transition moment : -1.21591741E-05 au
@ Oscillator strength (LENGTH)   :  4.68608731E-09  (X-polarization)

@ Operator label: YDIPLEN ; Transition moment :  4.41662582E-17 au
@ Oscillator strength (LENGTH)   :  6.18277495E-32  (Y-polarization)

@ Operator label: ZDIPLEN ; Transition moment :  3.17565949E-18 au
@ Oscillator strength (LENGTH)   :  3.19646594E-34  (Z-polarization)
@ Total oscillator strength (LENGTH)   :  4.68608731E-09

 Eigenvector for state no.195

      Index(conf)                         Z operator          Y operator
      ----------                      --------------      --------------
          15                           -0.1180667491        0.0000000000
          18                           -0.1752794630        0.0000000000
          21                           -0.8681802564        0.0000000000
          96                            0.2507422718        0.0000000000
         123                            0.3443189179        0.0000000000

      191 elements with absolute value ≤ 1.00D-01 are not printed.

 Printout of coefficients in interval  3.1623E-01 to  1.0000E+00
 ===============================================================

  Coefficient of CSF no.        21 is     -0.86818026   -8.68180256E-01
  Orbital          3   4   5   6   7
  Spin coupling    2   2   2   2   2

  Coefficient of CSF no.       123 is      0.34431892    3.44318918E-01
  Orbital          3   5   6   7   2   4
  Spin coupling    2   2   2   2   1  -1

 Printout of coefficients in interval  1.0000E-01 to  3.1623E-01
 ===============================================================

  Coefficient of CSF no.        15 is     -0.11806675   -1.18066749E-01
  Orbital          2   3   4   6   7
  Spin coupling    2   2   2   2   2

  Coefficient of CSF no.        18 is     -0.17527946   -1.75279463E-01
  Orbital          2   3   5   6   7
  Spin coupling    2   2   2   2   2

  Coefficient of CSF no.        96 is      0.25074227    2.50742272E-01
  Orbital          3   4   5   7   2   6
  Spin coupling    2   2   2   2   1  -1

 Norm of printed CI vector ..      0.97982681

 Magnitude of CI coefficients
 ============================
 ( Ranges are relative to norm of vector :  1.00E+00 )

  10- 1 to 10- 0         5    0.97982681E+00      0.9798268090
  10- 2 to 10- 1         4    0.19916943E-01      0.9997437519
  10- 3 to 10- 2        16    0.24986791E-03      0.9999936198
  10- 4 to 10- 3        32    0.63332393E-05      0.9999999530
  10- 5 to 10- 4         9    0.46780673E-07      0.9999999998
  10- 6 to 10- 5         4    0.21689590E-09      1.0000000000
  Number of coefficients less than 10^-11 times norm is          126


 Time used in polarization propagator calculation is      0.50 CPU seconds for symmetry 1

  Total CPU  time used in RESPONSE:   0.53 seconds
  Total wall time used in RESPONSE:   1.01 seconds


                   .-------------------------------------------.
                   | End of Dynamic Property Section (RESPONS) |
                   `-------------------------------------------'

  Total CPU  time used in DALTON:   0.66 seconds
  Total wall time used in DALTON:   2.11 seconds

 NOTE:    1 warnings have been issued.
 Check output, result, and error files for "WARNING".

 
     Date and time (Linux)  : Tue Jul  7 15:31:56 2026
     Host name              : n-62-31-24                              
