

     ************************************************************************
     *************** Dalton - An Electronic Structure Program ***************
     ************************************************************************

    This is output from DALTON release Dalton2024.0-dev (2024)
         ( Web site: http://daltonprogram.org )

   ----------------------------------------------------------------------------

    NOTE:
     
    Dalton is an experimental code for the evaluation of molecular
    properties using (MC)SCF, DFT, CI, and CC wave functions.
    The authors accept no responsibility for the performance of
    the code or for the correctness of the results.
     
    The code (in whole or part) is provided under a licence and
    is not to be reproduced for further distribution without
    the written permission of the authors or their representatives.
     
    See the home page "http://daltonprogram.org" for further information.
     
    If results obtained with this code are published,
    the appropriate citations would be both of:
     
       K. Aidas, C. Angeli, K. L. Bak, V. Bakken,
       R. Bast, L. Boman, O. Christiansen, R. Cimiraglia,
       S. Coriani, P. Dahle, E. K. Dalskov, U. Ekstroem,
       T. Enevoldsen, J. J. Eriksen, P. Ettenhuber, B. Fernandez,
       L. Ferrighi, H. Fliegl, L. Frediani, K. Hald, A. Halkier,
       C. Haettig, H. Heiberg, T. Helgaker, A. C. Hennum,
       H. Hettema, E. Hjertenaes, S. Hoest, I.-M. Hoeyvik,
       M. F. Iozzi, B. Jansik, H. J. Aa. Jensen, D. Jonsson,
       P. Joergensen, J. Kauczor, S. Kirpekar,
       T. Kjaergaard, W. Klopper, S. Knecht, R. Kobayashi, H. Koch,
       J. Kongsted, A. Krapp, K. Kristensen, A. Ligabue,
       O. B. Lutnaes, J. I. Melo, K. V. Mikkelsen, R. H. Myhre,
       C. Neiss, C. B. Nielsen, P. Norman, J. Olsen,
       J. M. H. Olsen, A. Osted, M. J. Packer, F. Pawlowski,
       T. B. Pedersen, P. F. Provasi, S. Reine, Z. Rinkevicius,
       T. A. Ruden, K. Ruud, V. Rybkin, P. Salek, C. C. M. Samson,
       A. Sanchez de Meras, T. Saue, S. P. A. Sauer,
       B. Schimmelpfennig, K. Sneskov, A. H. Steindal,
       K. O. Sylvester-Hvid, P. R. Taylor, A. M. Teale,
       E. I. Tellgren, D. P. Tew, A. J. Thorvaldsen, L. Thoegersen,
       O. Vahtras, M. A. Watson, D. J. D. Wilson, M. Ziolkowski
       and H. Agren,
       "The Dalton quantum chemistry program system",
       WIREs Comput. Mol. Sci. 2014, 4:269-284 (doi: 10.1002/wcms.1172)
     
    and
     
       Dalton, a molecular electronic structure program,
       Release Dalton2024.0-dev (2024), see http://daltonprogram.org
   ----------------------------------------------------------------------------

    Authors in alphabetical order (Major contribution(s) in parenthesis):

  Kestutis Aidas,              Vilnius University,        Lithuania   (QM/MM)
  Celestino Angeli,            University of Ferrara,     Italy       (NEVPT2)
  Juan J. Aucar,               Northeast National UniversiArgentina   (LRESC, Relativistic Effects on EFG)
  Keld L. Bak,                 UNI-C,                     Denmark     (AOSOPPA, non-adiabatic coupling, magnetic properties)
  Vebjoern Bakken,             University of Oslo,        Norway      (DALTON; geometry optimizer, symmetry detection)
  Radovan Bast,                UiT The Arctic U. of NorwayNorway      (DALTON installation and execution frameworks)
  Pablo Baudin,                University of Valencia,    Spain       (Cholesky excitation energies)
  Linus Boman,                 NTNU,                      Norway      (Cholesky decomposition and subsystems)
  Bruno N. Cabral Tenorio,     Technical Univ. of Denmark,Denmark     (Lanczos-based CC methods)
  Ove Christiansen,            Aarhus University,         Denmark     (CC module)
  Renzo Cimiraglia,            University of Ferrara,     Italy       (NEVPT2)
  Sonia Coriani,               Technical Univ. of Denmark,Denmark     (CC and RESPONS modules)
  Janusz Cukras,               University of Warsaw,      Poland      (MChD in RESPONS)
  Paal Dahle,                  University of Oslo,        Norway      (Parallelization)
  Erik K. Dalskov,             UNI-C,                     Denmark     (SOPPA)
  Thomas Enevoldsen,           Univ. of Southern Denmark, Denmark     (SOPPA)
  Janus J. Eriksen,            Aarhus University,         Denmark     (Polarizable embedding, TDA)
  Rasmus Faber,                Technical Univ. of Denmark,Denmark     (Vib.avg. NMR w. SOPPA, parallel AO-SOPPA, CVS-CC and EOMCC)
  Tobias Fahleson,             KTH Stockholm,             Sweden      (Damped cubic response)
  Berta Fernandez,             U. of Santiago de CompostelSpain       (Doublet spin, ESR in RESPONS)
  Lara Ferrighi,               Aarhus University,         Denmark     (PCM Cubic response)
  Heike Fliegl,                University of Oslo,        Norway      (CCSD(R12))
  Luca Frediani,               UiT The Arctic U. of NorwayNorway      (PCM)
  Emmanuel Fromager,           Univ. Strasbourg,          France      (MC-srDFT)
  Bin Gao,                     UiT The Arctic U. of NorwayNorway      (Gen1Int library)
  Andre S. P. Gomes,           CNRS/Universite de Lille,  France      (Frozen density embedding)
  Christof Haettig,            Ruhr-University Bochum,    Germany     (CC module)
  Kasper Hald,                 Aarhus University,         Denmark     (CC module)
  Asger Halkier,               Aarhus University,         Denmark     (CC module)
  Frederik Beyer Hansen,       University of Copenhagen,  Denmark     (Parallel AO-SOPPA)
  Erik D. Hedegaard,           Univ. of Southern Denmark, Denmark     (Polarizable embedding, QM/MM, and MC-srDFT)
  Hanne Heiberg,               University of Oslo,        Norway      (Geometry analysis, selected one-electron integrals)
  Trygve Helgaker,             University of Oslo,        Norway      (DALTON; ABACUS, ERI, DFT modules, London, and much more)
  Alf Christian Hennum,        University of Oslo,        Norway      (Parity violation)
  Hinne Hettema,               University of Auckland,    New Zealand (Quadratic response in RESPONS; SIRIUS supersymmetry)
  Andreas E. Hillers-Bendtsen, University of Copenhagen,  Denmark     (MP3)
  Eirik Hjertenaes,            NTNU,                      Norway      (Cholesky decomposition)
  Nicolai Machholdt Hoeyer,    Aarhus University,         Denmark     (MP3)
  Pi A. B. Haase,              University of Copenhagen,  Denmark     (Triplet AO-SOPPA)
  Maria Francesca Iozzi,       University of Oslo,        Norway      (RPA)
  Christoph Jacob,             TU Braunschweig            Germany     (Frozen density embedding)
  Brano Jansik,                Technical Univ. of Ostrava Czech Rep.  (DFT cubic response)
  Hans Joergen Aa. Jensen,     Univ. of Southern Denmark, Denmark     (DALTON; SIRIUS, RESPONS, ABACUS, MC-srDFT, and much more)
  Dan Jonsson,                 UiT The Arctic U. of NorwayNorway      (Cubic response in RESPONS module)
  Poul Joergensen,             Aarhus University,         Denmark     (RESPONS, ABACUS, and CC modules)
  Maciej Kaminski,             University of Warsaw,      Poland      (CPPh in RESPONS)
  Joanna Kauczor,              Linkoeping University,     Sweden      (Complex polarization propagator (CPP) module)
  Sheela Kirpekar,             Univ. of Southern Denmark, Denmark     (Mass-velocity & Darwin integrals)
  Frederik Oersted Kjeldal,    Technical Univ. of Denmark,Denmark     (MP3)
  Erik Kjellgren,              Univ. of Southern Denmark, Denmark     (MC-srDFT)
  Wim Klopper,                 KIT Karlsruhe,             Germany     (R12 code in CC, SIRIUS, and ABACUS modules)
  Stefan Knecht,               ETH Zurich,                Switzerland (Parallel CI and MCSCF, MC-srDFT)
  Rika Kobayashi,              Australian National Univ., Australia   (DIIS in CC, London in MCSCF)
  Henrik Koch,                 NTNU,                      Norway      (CC module, Cholesky decomposition)
  Jacob Kongsted,              Univ. of Southern Denmark, Denmark     (Polarizable embedding, polarizable density embedding, QM/MM)
  Andrea Ligabue,              University of Modena,      Italy       (CTOCD, AOSOPPA)
  Nanna H. List,               Univ. of Southern Denmark, Denmark     (Polarizable embedding)
  Ola B. Lutnaes,              University of Oslo,        Norway      (DFT Hessian)
  Juan I. Melo,                University of Buenos Aires,Argentina   (LRESC, Relativistic Effects on NMR Shieldings)
  Kurt V. Mikkelsen,           University of Copenhagen,  Denmark     (MC-SCRF, QM/MM, and MP3)
  Rolf H. Myhre,               NTNU,                      Norway      (Subsystems and CC3)
  Christian Neiss,             Univ. Erlangen-Nuernberg,  Germany     (CCSD(R12))
  Christian B. Nielsen,        University of Copenhagen,  Denmark     (QM/MM)
  Patrick Norman,              KTH Stockholm,             Sweden      (Cubic response and complex frequency response in RESPONS)
  Jeppe Olsen,                 Aarhus University,         Denmark     (SIRIUS CI/density modules)
  Jogvan Magnus H. Olsen,      Aarhus University,         Denmark     (Polarizable embedding and polarizable density embedding)
  Anders Osted,                Copenhagen University,     Denmark     (QM/MM)
  Martin J. Packer,            University of Sheffield,   UK          (SOPPA)
  Filip Pawlowski,             Kazimierz Wielki UniversityPoland      (CC3)
  Morten N. Pedersen,          Univ. of Southern Denmark, Denmark     (Polarizable embedding)
  Thomas B. Pedersen,          University of Oslo,        Norway      (Cholesky decomposition)
  Patricio F. Provasi,         University of Northeastern,Argentina   (Analysis of coupling constants in localized orbitals)
  Peter Reinholdt,             Univ. of Southern Denmark, Denmark     (Polarizable embedding and polarizable density embedding)
  Zilvinas Rinkevicius,        KTH Stockholm,             Sweden      (open-shell DFT, ESR)
  Elias Rudberg,               KTH Stockholm,             Sweden      (DFT grid and basis info)
  Torgeir A. Ruden,            University of Oslo,        Norway      (Numerical derivatives in ABACUS)
  Kenneth Ruud,                UiT The Arctic U. of NorwayNorway      (DALTON; ABACUS magnetic properties and much more)
  Pawel Salek,                 KTH Stockholm,             Sweden      (DALTON; DFT code)
  Claire C. M. Samson,         University of Karlsruhe    Germany     (Boys localization, r12 integrals in ERI)
  Alfredo Sanchez de Meras,    University of Valencia,    Spain       (CC module, Cholesky decomposition)
  Trond Saue,                  Paul Sabatier University,  France      (direct Fock matrix construction)
  Stephan P. A. Sauer,         University of Copenhagen,  Denmark     (SOPPA(CCSD), SOPPA prop., AOSOPPA, vibrational g-factors)
  Bernd Schimmelpfennig,       Forschungszentrum KarlsruheGermany     (AMFI module)
  Anna K. Schnack-Petersen,    University of Copenhagen,  Denmark     (RPA(D) and HRPA(D) properties in AOSOPPA)
  Kristian Sneskov,            Aarhus University,         Denmark     (Polarizable embedding, QM/MM)
  Arnfinn H. Steindal,         UiT The Arctic U. of NorwayNorway      (parallel QM/MM, polarizable embedding)
  Casper Steinmann,            Aalborg University,        Denmark     (QFIT, polarizable embedding)
  K. O. Sylvester-Hvid,        University of Copenhagen,  Denmark     (MC-SCRF)
  Peter R. Taylor,             VLSCI/Univ. of Melbourne,  Australia   (Symmetry handling ABACUS, integral transformation)
  Andrew M. Teale,             University of Nottingham,  England     (DFT-AC, DFT-D)
  David P. Tew,                University of Bristol,     England     (CCSD(R12))
  Julien Toulouse,             Sorbonne Univ.,            France      (MC-srDFT)
  Olav Vahtras,                KTH Stockholm,             Sweden      (Triplet response, spin-orbit, ESR, TDDFT, open-shell DFT)
  Lucas Visscher,              Vrije Universiteit AmsterdaNetherlands (Frozen density embedding)
  David J. Wilson,             La Trobe University,       Australia   (DFT Hessian and DFT magnetizabilities)
  Luna Zamok,                  University of Copenhagen,  Denmark     (Block Lanczos RPA solver in SOPPA module)
  Hans Agren,                  KTH Stockholm,             Sweden      (SIRIUS module, RESPONS, MC-SCRF solvation)
 --------------------------------------------------------------------------------

     Date and time (Linux)  : Tue Jul  7 15:32:03 2026
     Host name              : n-62-11-64                              

 * Work memory size             :   512000000 =  3.815 gigabytes.

 * Directories for basis set searches:
   1) /work3/jochar/DaltonTests
   2) /zhome/d7/7/119775/My_Codes/Dalton_Release/dalton/build_omp_nov24/basis


Compilation information
-----------------------

 Who compiled             | soco
 Host                     | hpclogin1
 System                   | Linux-6.1.112-1.el9.elrepo.x86_64
 CMake generator          | Unix Makefiles
 Processor                | x86_64
 64-bit integers          | OFF
 MPI                      | OFF
 Fortran compiler         | /appl/intel/2023.2.0.49397/compiler/2023.2.0/linux
                          | /bin/intel64/ifort
 Fortran compiler version | ifort (IFORT) 2021.10.0 20230609
 C compiler               | /appl/intel/2023.2.0.49397/compiler/2023.2.0/linux
                          | /bin/intel64/icc
 C compiler version       | icc (ICC) 2021.10.0 20230609
 C++ compiler             | /appl/intel/2023.2.0.49397/compiler/2023.2.0/linux
                          | /bin/intel64/icpc
 C++ compiler version     | icpc (ICC) 2021.10.0 20230609
 Static linking           | OFF
 Last Git revision        | a531ac4fbf115ebda1c90140ce3fd6aa236a2033
 Git branch               | master
 Configuration time       | 2024-11-14 11:23:30.470039

 * Sequential calculation.


   Content of the .dal input file
 ----------------------------------

**DALTON INPUT
.RUN WAVE FUNCTIONS   !tipo di calcolo
.RUN RESPONSE
**INTEGRALS
.DIPLEN               !integrali dell'operatore dipolo elettrico
**WAVE FUNCTION
.HF
.CI
!*PRINT
!.PRINTL
!   0 11
*SCF INP              !parte da Hartree-Fock
.DOUBLY OCCUPIED
5
.THRESH               !soglia di convergenza
 1.0D-10
*CONFIGURATION INPUT
.SPIN MULTIPLICITY
1
.SYMMETRY
1
.INACTIVE ORBITALS !the inner electrons are kept frozen
0
.CAS SPACE
7
.ELECTRONS
10
**RESPONS
*LINEAR
.THCLR
1.0d-9
.DIPLEN
.SINGLE RESIDUE
.ROOTS
300
**END OF INPUT


   Content of the .mol file
 ----------------------------

BASIS
cc-pVDZ
test VQE
dalton test
Atomtypes=2 Angstrom Nosymmetry
Charge=8.0 Atoms=1
O     0.1035000000000000  0.0000000000000000  0.0
Charge=1.0 Atoms=2
H    -0.4640000000000000  0.7956000000000000  0.0
H    -0.4640000000000000  -0.7956000000000000  0.0


       *******************************************************************
       *********** Output from DALTON general input processing ***********
       *******************************************************************

 --------------------------------------------------------------------------------
   Overall default print level:    0
   Print level for DALTON.STAT:    1

    HERMIT 1- and 2-electron integral sections will be executed
    "Old" integral transformation used (limited to max 255 basis functions)
    Wave function sections will be executed (SIRIUS module)
    Dynamic molecular response properties section will be executed (RESPONSE module)
 --------------------------------------------------------------------------------


   ****************************************************************************
   *************** Output of molecule and basis set information ***************
   ****************************************************************************


    The two title cards from your ".mol" input:
    --------------------------------------------------------------------------------
 1: test VQE
 2: dalton test
    --------------------------------------------------------------------------------

  Coordinates are entered in Angstrom and converted to atomic units.
          - Conversion factor : 1 bohr = 0.52917721 A

  Atomic type no.    1
  --------------------
  Nuclear charge:   8.00000
  Number of symmetry independent centers:    1
  Number of basis sets to read;    2
  Basis set file used for this atomic type with Z =   8 :
     "/zhome/d7/7/119775/My_Codes/Dalton_Release/dalton/build_omp_nov24/basis/cc-pVDZ"

  Atomic type no.    2
  --------------------
  Nuclear charge:   1.00000
  Number of symmetry independent centers:    2
  Number of basis sets to read;    2
  Basis set file used for this atomic type with Z =   1 :
     "/zhome/d7/7/119775/My_Codes/Dalton_Release/dalton/build_omp_nov24/basis/cc-pVDZ"


                         SYMGRP: Point group information
                         -------------------------------

@    Point group: C1 


                                 Isotopic Masses
                                 ---------------

                           O          15.994915
                           H           1.007825
                           H           1.007825

                       Total mass:    18.010565 amu
                       Natural abundance:  99.730 %

 Center-of-mass coordinates (a.u.):    0.075567    0.000000    0.000000
 Center-of-mass coordinates (Angs):    0.039988    0.000000    0.000000


  Atoms and basis sets
  --------------------

  Number of atom types :    2
  Total number of atoms:    3

  Basis set used is "cc-pVDZ" from the basis set library.

  label    atoms   charge   prim   cont     basis
  ----------------------------------------------------------------------
  O           1    8.0000    26    14      [9s4p1d|3s2p1d]                                    
  H           2    1.0000     7     5      [4s1p|2s1p]                                        
  ----------------------------------------------------------------------
  total:      3   10.0000    40    24
  ----------------------------------------------------------------------
  Spherical harmonic basis used.

  Threshold for neglecting AO integrals:  1.00D-12


  Cartesian Coordinates (a.u.)
  ----------------------------

  Total number of coordinates:    9
  O       :     1  x   0.1955866539    2  y   0.0000000000    3  z   0.0000000000
  H       :     4  x  -0.8768329220    5  y   1.5034661050    6  z   0.0000000000
  H       :     7  x  -0.8768329220    8  y  -1.5034661050    9  z   0.0000000000


   Interatomic separations (in Angstrom):
   --------------------------------------

            O           H           H     
            ------      ------      ------
 O     :    0.000000
 H     :    0.977259    0.000000
 H     :    0.977259    1.591200    0.000000


  Max    interatomic separation is    1.5912 Angstrom (    3.0069 Bohr)
  between atoms    3 and    2, "H     " and "H     ".

  Min HX interatomic separation is    0.9773 Angstrom (    1.8468 Bohr)


  Bond distances (Angstrom):
  --------------------------

                  atom 1     atom 2       distance
                  ------     ------       --------
  bond distance:  H          O            0.977259
  bond distance:  H          O            0.977259


  Bond angles (degrees):
  ----------------------

                  atom 1     atom 2     atom 3         angle
                  ------     ------     ------         -----
  bond angle:     H          O          H            109.000




 Principal moments of inertia (u*A**2) and principal axes
 --------------------------------------------------------

   IA       0.576503          0.000000    1.000000    0.000000
   IB       1.275865          1.000000    0.000000    0.000000
   IC       1.852368          0.000000    0.000000    1.000000


 Rotational constants
 --------------------

@    The molecule is planar.

               A                   B                   C

         876628.8169         396107.0071         272828.6660 MHz
           29.241190           13.212708            9.100585 cm-1


@  Nuclear repulsion energy :    8.996423008986 Hartree


                     .---------------------------------------.
                     | Starting in Integral Section (HERMIT) |
                     `---------------------------------------'



 ***************************************************************************************
 ****************** Output from **INTEGRALS input processing (HERMIT) ******************
 ***************************************************************************************



    *************************************************************************
    ****************** Output from HERMIT input processing ******************
    *************************************************************************


 Default print level:        1

 Calculation of one- and two-electron Hamiltonian integrals.

 The following one-electron property integrals are calculated as requested:
          - overlap integrals
          - dipole length integrals

 Center of mass  (bohr):      0.075566958928      0.000000000000      0.000000000000
 Operator center (bohr):      0.000000000000      0.000000000000      0.000000000000
 Gauge origin    (bohr):      0.000000000000      0.000000000000      0.000000000000
 Dipole origin   (bohr):      0.000000000000      0.000000000000      0.000000000000

Calculation of 2-electron integrals are postponed until they are needed.


     ************************************************************************
     ************************** Output from HERINT **************************
     ************************************************************************



                      Nuclear contribution to dipole moments
                      --------------------------------------

                 au               Debye          C m (/(10**-30)

      x     -0.18897261        -0.48032044        -1.60217653
      y      0.00000000         0.00000000         0.00000000
      z      0.00000000         0.00000000         0.00000000


  Total CPU  time used in HERMIT:   0.02 seconds
  Total wall time used in HERMIT:   0.06 seconds


                        .----------------------------------.
                        | End of Integral Section (HERMIT) |
                        `----------------------------------'



                   .--------------------------------------------.
                   | Starting in Wave Function Section (SIRIUS) |
                   `--------------------------------------------'


     WARNING  Reference state is required for CI response and CI-NO
     WARNING  ".STATE" was not specified for "*CI INPUT",
     WARNING  the reference state is set to be state no.  1

 *** Output from Huckel module :

     Using EWMO model:          T
     Using EHT  model:          F
     Number of Huckel orbitals each symmetry:    7

 EWMO - Energy Weighted Maximum Overlap - is a Huckel type method,
        which normally is better than Extended Huckel Theory.
 Reference: Linderberg and Ohrn, Propagators in Quantum Chemistry (Wiley, 1973)

 Huckel EWMO eigenvalues for symmetry :  1
          -20.684655      -1.594745      -0.787122      -0.682665      -0.616200
           -0.240931      -0.173582

 **********************************************************************
 *SIRIUS* a direct, restricted step, second order MCSCF program       *
 **********************************************************************

 
     Date and time (Linux)  : Tue Jul  7 15:32:04 2026
     Host name              : n-62-11-64                              

 Title lines from ".mol" input file:
     test VQE
     dalton test

 Print level on unit LUPRI =   2 is   0
 Print level on unit LUW4  =   2 is   5

@    Configuration interaction calculation.

@    CI response calculation.

@    CI type: user specified active spaces.
@              Type: complete active space calculation (CAS).

@    This is a combination run starting with
@              a restricted, closed shell Hartree-Fock calculation


 Initial molecular orbitals are obtained according to
 ".MOSTART EWMO  " input option

     Wave function specification
     ============================
@    Wave function type        --- CI ---
@    Number of closed shell electrons           0
@    Number of electrons in active shells      10
@    Total charge of the molecule               0

@    Spin multiplicity and 2 M_S                1         0
@    Total number of symmetries                 1 (point group: C1 )
@    Reference state symmetry                   1 (irrep name : A  )

     Orbital specifications
     ======================
@    Abelian symmetry species          All |    1
@                                          |  A  
                                       --- |  ---
@    Inactive orbitals                   0 |    0
@    Active orbitals                     7 |    7
@    Secondary orbitals                 17 |   17
@    Total number of orbitals           24 |   24
@    Number of basis functions          24 |   24

      -- Initial occupation of symmetries is determined from user input.                      
      -- Initial occupation of symmetries is :
@    Occupied SCF orbitals               5 |    5

     Optimization information
     ========================
@    Number of configurations               196
@    Number of orbital rotations              0
     ------------------------------------------
@    Total number of variables              196

     Maximum number of CI iterations         25
     Threshold for CI convergence      1.00D-05
     Number of CI roots to converge           1

@    Reference state in CI response calculation :       1


 ***********************************************
 ***** DIIS acceleration of SCF iterations *****
 ***********************************************

 C1-DIIS algorithm; max error vectors =    8

 Iter      Total energy        Error norm    Delta(E)  DIIS dim.
 -----------------------------------------------------------------------------

Calculating AOSUPINT

---> (Re)generating AOTWOINT


     ************************************************************************
     ************************** Output from HERINT **************************
     ************************************************************************


 Threshold for neglecting two-electron integrals:  1.00D-12
 HERMIT - Number of two-electron integrals written:       21669 ( 48.0% )
 HERMIT - Megabytes written:                              0.275

     (Precalculated AO two-electron integrals are transformed to P-supermatrix elements.
      Threshold for discarding integrals :  1.00D-12 )

@  1    -75.8627126477        1.56431D+00   -7.59D+01    1
      Virial theorem: -V/T =      2.000620
@    MULPOP   O      -0.55; H       0.28; H       0.28; 
   1  Level shift: doubly occupied orbital energies shifted by -2.00D-01
 -----------------------------------------------------------------------------
@  2    -76.0150619074        3.29776D-01   -1.52D-01    2
      Virial theorem: -V/T =      2.002979
@    MULPOP   O      -0.30; H       0.15; H       0.15; 
   2  Level shift: doubly occupied orbital energies shifted by -5.00D-02
 -----------------------------------------------------------------------------
@  3    -76.0236024771        8.11320D-02   -8.54D-03    3
      Virial theorem: -V/T =      2.001227
@    MULPOP   O      -0.32; H       0.16; H       0.16; 
   3  Level shift: doubly occupied orbital energies shifted by -1.25D-02
 -----------------------------------------------------------------------------
@  4    -76.0242788312        2.22459D-02   -6.76D-04    4
      Virial theorem: -V/T =      2.001861
@    MULPOP   O      -0.33; H       0.17; H       0.17; 
 -----------------------------------------------------------------------------
@  5    -76.0243118595        7.33271D-03   -3.30D-05    5
      Virial theorem: -V/T =      2.001410
@    MULPOP   O      -0.34; H       0.17; H       0.17; 
 -----------------------------------------------------------------------------
@  6    -76.0243170498        1.48247D-03   -5.19D-06    6
      Virial theorem: -V/T =      2.001521
@    MULPOP   O      -0.34; H       0.17; H       0.17; 
 -----------------------------------------------------------------------------
@  7    -76.0243174538        2.14252D-04   -4.04D-07    7
      Virial theorem: -V/T =      2.001537
@    MULPOP   O      -0.34; H       0.17; H       0.17; 
 -----------------------------------------------------------------------------
@  8    -76.0243174619        3.53744D-05   -8.10D-09    8
      Virial theorem: -V/T =      2.001537
@    MULPOP   O      -0.34; H       0.17; H       0.17; 
 -----------------------------------------------------------------------------
@  9    -76.0243174621        6.02110D-06   -1.72D-10    8
      Virial theorem: -V/T =      2.001537
@    MULPOP   O      -0.34; H       0.17; H       0.17; 
 -----------------------------------------------------------------------------
@ 10    -76.0243174621        4.44866D-07   -4.52D-12    8
      Virial theorem: -V/T =      2.001537
@    MULPOP   O      -0.34; H       0.17; H       0.17; 
 -----------------------------------------------------------------------------
@ 11    -76.0243174621        6.76643D-08   -2.84D-14    8
      Virial theorem: -V/T =      2.001537
@    MULPOP   O      -0.34; H       0.17; H       0.17; 
 -----------------------------------------------------------------------------
@ 12    -76.0243174621        8.15212D-09   -2.84D-14    8
      Virial theorem: -V/T =      2.001537
@    MULPOP   O      -0.34; H       0.17; H       0.17; 
 -----------------------------------------------------------------------------
@ 13    -76.0243174621        1.25990D-09    5.68D-14    8
      Virial theorem: -V/T =      2.001537
@    MULPOP   O      -0.34; H       0.17; H       0.17; 
 -----------------------------------------------------------------------------
@ 14    -76.0243174621        1.44304D-10   -2.84D-14    8
      Virial theorem: -V/T =      2.001537
@    MULPOP   O      -0.34; H       0.17; H       0.17; 
 -----------------------------------------------------------------------------
@ 15    -76.0243174621        2.47463D-11    2.84D-14    8

@ *** DIIS converged in  15 iterations !
@     Converged SCF energy, gradient:    -76.024317462073    2.47D-11
    - total time used in SIRFCK :              0.00 seconds

 --- Writing SIRIFC interface file

--------------------------------------------------------------------------------


     .--------------------------------------------------.
     | HF-SCF KT IPs [a.u. & eV] from Koopmans' theorem |
     `--------------------------------------------------'


     HF-SCF KT symmetry 1 ( A  ) in point group C1  -- 5 principal poles with pole strength 1

   ============  ============  ============  ============  ============
      20.551252      1.323334      0.696600      0.553795      0.490020
     559.228027     36.009753     18.955463     15.069519     13.334117
   ============  ============  ============  ============  ============

@ Summary of HF-SCF KT ionization potentials [eV]:

@ Symmetry 1 (A  ) :   559.228      36.010      18.955      15.070      13.334

  === End of HF-SCF KT output ===
--------------------------------------------------------------------------------


 CPU and wall time for SCF :       0.097       0.829


 ----- Output from SIRIUS CI module (CICTL) -----




 2-el. integral transformation level 0: Total CPU and WALL times (sec)       0.014       0.048

 (CIST1) 8 lowest diagonal elements:

 Element no. Config.no.    Active energy      Total energy

         1 :          1    -85.0207404711    -76.0243174621
         2 :         22    -84.6854743615    -75.6890513525
         3 :         25    -84.6055834733    -75.6091604643
         4 :         23    -84.6022831479    -75.6058601389
         5 :         26    -84.5297262041    -75.5333031951
         6 :         28    -84.4795382382    -75.4831152293
         7 :         29    -84.3688615990    -75.3724385901
         8 :         37    -83.9994701699    -75.0030471609

Lowest 1 elements are used as separate start CI vectors.


 Convergence threshold for CI optimization :     0.00001000


 CI root     eigenvalue        residual norm

    1      -76.0243174621        0.1089366497

 CI root     eigenvalue        residual norm

    1      -76.0306281415        0.0252407840

 CI root     eigenvalue        residual norm

    1      -76.0309857173        0.0035626010

 CI root     eigenvalue        residual norm

    1      -76.0309912372        0.0006631453

 CI root     eigenvalue        residual norm

    1      -76.0309914704        0.0001196693

 CI root     eigenvalue        residual norm

    1      -76.0309914763        0.0000190314

 CI root     eigenvalue        residual norm

    1      -76.0309914764        0.0000026546 converged

 The requested root number is now converged.


 *** CI converged in  7 iterations.



@ Final CI energies and residuals in symmetry 1 (irrep A  )
@    1      -76.030991476418734       2.65D-06

 Writing SIRIFC interface file for CI root no. 1

 CPU and wall time for CI :       0.025       0.240


                       .-----------------------------------.
                       | --- Final results from SIRIUS --- |
                       `-----------------------------------'


@    Spin multiplicity:           1
@    Spatial symmetry:            1 ( irrep  A   in C1  )
@    Total charge of molecule:    0

@    This was a CI calculation.
@    State number:                1

@    Final CI energy:             -76.030991476419
@    Nuclear repulsion:             8.996423008986
@    Electronic energy:           -85.027414485404

@    Final gradient norm:           0.000002654642

 
     Date and time (Linux)  : Tue Jul  7 15:32:05 2026
     Host name              : n-62-11-64                              

 Occupancies of natural orbitals
 -------------------------------

 Symmetry 1  ( A  ) -- Total occupation in this symmetry is  10.000000000

   1.999999724   1.999842184   1.995542691   1.996426276   1.999799701
   0.004088766   0.004300658

  Effective numbers of unpaired electrons this symmetry Eqs. 1) and 2):  0.03  0.00

  Total effective number of unpaired electrons :
  Eq. 1) sum(i) [(2 - n_i) n_i]    =  0.0335
  Eq. 2) sum(i) [(2 - n_i) n_i]**2 =  0.0003
 (Reference: M. Head-Gordon, Chemical Physics Letters 372 (2003) 508-511)

  --- NOTE THAT THE OCCUPATION NUMBERS ARE FOR ANALYSIS PURPOSE ONLY
  --- The orbital coefficients have NOT been transformed
  --- to ordered natural orbitals.

File label for MO orbitals:   7Jul26    CIORB  

 (Only coefficients > 0.0100 are printed.)

 Molecular orbitals for symmetry species 1  (A  )
 ------------------------------------------------

    Orbital         1        2        3        4        5        6        7
   1 O   :1s    -1.0004   0.0079   0.0000   0.0019   0.0000   0.0521   0.0000
   2 O   :1s    -0.0021  -0.8751   0.0000  -0.2817   0.0000  -0.1485   0.0000
   3 O   :1s     0.0014   0.1081  -0.0000  -0.1687   0.0000  -0.9072   0.0000
   4 O   :2px    0.0024   0.1042  -0.0000  -0.8002   0.0000   0.2808  -0.0000
   5 O   :2py    0.0000  -0.0000  -0.7065   0.0000   0.0000  -0.0000  -0.4179
   6 O   :2pz   -0.0000  -0.0000  -0.0000  -0.0000  -0.9197  -0.0000   0.0000
   7 O   :2px   -0.0017  -0.0566  -0.0000  -0.0111   0.0000   0.2050  -0.0000
   8 O   :2py   -0.0000   0.0000   0.1051  -0.0000  -0.0000   0.0000  -0.4833
   9 O   :2pz   -0.0000  -0.0000  -0.0000  -0.0000  -0.0739  -0.0000   0.0000
  10 O   :3d2-  -0.0000   0.0000   0.0253  -0.0000   0.0000   0.0000   0.0201
  12 O   :3d0    0.0001   0.0031  -0.0000  -0.0127   0.0000   0.0110  -0.0000
  13 O   :3d1+   0.0000   0.0000   0.0000   0.0000   0.0175   0.0000  -0.0000
  14 O   :3d2+   0.0001   0.0010   0.0000   0.0124  -0.0000  -0.0009   0.0000
  15 H   :1s     0.0002  -0.3116  -0.5557   0.3387   0.0000   0.1175   0.0460
  16 H   :1s    -0.0006   0.1452   0.1882  -0.1252  -0.0000   0.7646   1.3642
  17 H   :2px    0.0004  -0.0182  -0.0313  -0.0085   0.0000   0.0151   0.0154
  18 H   :2py   -0.0005   0.0368   0.0254  -0.0303  -0.0000  -0.0161  -0.0202
  19 H   :2pz    0.0000   0.0000   0.0000   0.0000  -0.0300   0.0000  -0.0000
  20 H   :1s     0.0002  -0.3116   0.5557   0.3387  -0.0000   0.1175  -0.0460
  21 H   :1s    -0.0006   0.1452  -0.1882  -0.1252  -0.0000   0.7646  -1.3642
  22 H   :2px    0.0004  -0.0182   0.0313  -0.0085  -0.0000   0.0151  -0.0154
  23 H   :2py    0.0005  -0.0368   0.0254   0.0303  -0.0000   0.0161  -0.0202
  24 H   :2pz    0.0000   0.0000   0.0000   0.0000  -0.0300   0.0000  -0.0000

    Orbital         8        9       10       11       12       13       14
   1 O   :1s     0.0000   0.0608  -0.0081   0.0000   0.0000   0.0000  -0.2517
   2 O   :1s     0.0000   0.4803   0.1567   0.0000   0.0000   0.0000  -1.2471
   3 O   :1s     0.0000  -0.5323   0.6282   0.0000  -0.0000  -0.0000   1.4455
   4 O   :2px   -0.0000  -0.4242   1.1435   0.0000  -0.0000   0.0000  -0.2494
   5 O   :2py    0.4206  -0.0000  -0.0000   0.0000  -1.0565   0.0000   0.0000
   6 O   :2pz   -0.0000  -0.0000   0.0000  -1.4102   0.0000  -0.0000   0.0000
   7 O   :2px   -0.0000   0.1437  -1.7544   0.0000   0.0000   0.0000   0.7936
   8 O   :2py    0.2256   0.0000   0.0000  -0.0000   2.2439  -0.0000   0.0000
   9 O   :2pz   -0.0000  -0.0000   0.0000   1.6596   0.0000   0.0000   0.0000
  10 O   :3d2-   0.1101  -0.0000  -0.0000   0.0000  -0.0350  -0.0000  -0.0000
  11 O   :3d1-   0.0000   0.0000  -0.0000  -0.0000   0.0000  -0.1329  -0.0000
  12 O   :3d0   -0.0000   0.0865  -0.0067   0.0000  -0.0000  -0.0000  -0.0534
  14 O   :3d2+   0.0000   0.0606   0.0104  -0.0000   0.0000   0.0000   0.1102
  15 H   :1s    -1.5992  -1.4130  -0.7892   0.0000  -0.6607   0.0000   0.4464
  16 H   :1s     1.5007   1.2648   0.2614  -0.0000  -0.4474  -0.0000  -0.4583
  17 H   :2px    0.1584   0.0335  -0.2521   0.0000  -0.1453  -0.0000  -0.5629
  18 H   :2py   -0.0703  -0.2685   0.1062  -0.0000   0.3311  -0.0000  -0.2800
  19 H   :2pz    0.0000   0.0000  -0.0000   0.0262  -0.0000  -0.6808  -0.0000
  20 H   :1s     1.5992  -1.4130  -0.7892  -0.0000   0.6607  -0.0000   0.4464
  21 H   :1s    -1.5007   1.2648   0.2614  -0.0000   0.4474  -0.0000  -0.4583
  22 H   :2px   -0.1584   0.0335  -0.2521  -0.0000   0.1453   0.0000  -0.5629
  23 H   :2py   -0.0703   0.2685  -0.1062  -0.0000   0.3311   0.0000   0.2800
  24 H   :2pz    0.0000   0.0000  -0.0000   0.0262  -0.0000   0.6808  -0.0000

    Orbital        15       16       17
   1 O   :1s     0.0000  -0.7182   0.0000
   2 O   :1s     0.0000  -3.1100   0.0000
   3 O   :1s     0.0000   4.6847  -0.0000
   4 O   :2px    0.0000  -0.0835  -0.0000
   5 O   :2py    0.0000  -0.0000  -0.1371
   6 O   :2pz    0.0234  -0.0000   0.0000
   7 O   :2px    0.0000  -0.9163  -0.0000
   8 O   :2py   -0.0000   0.0000   1.0554
   9 O   :2pz   -0.6582  -0.0000   0.0000
  10 O   :3d2-   0.0000   0.0000   0.0240
  12 O   :3d0    0.0000   0.1528  -0.0000
  13 O   :3d1+  -0.1615   0.0000  -0.0000
  14 O   :3d2+  -0.0000  -0.0557   0.0000
  15 H   :1s     0.0000  -1.3162  -0.7340
  16 H   :1s    -0.0000   0.2849   0.2615
  17 H   :2px    0.0000   0.0988  -0.6795
  18 H   :2py   -0.0000   0.3910  -0.4423
  19 H   :2pz    0.7689   0.0000  -0.0000
  20 H   :1s    -0.0000  -1.3162   0.7340
  21 H   :1s    -0.0000   0.2849  -0.2615
  22 H   :2px   -0.0000   0.0988   0.6795
  23 H   :2py   -0.0000  -0.3910  -0.4423
  24 H   :2pz    0.7689   0.0000  -0.0000

 Printout of CI-coefficients abs greater than 0.05000 for root  1
 *** NOTE: this root is the CI reference state ***

 Printout of coefficients in interval  3.1623E-01 to  1.0000E+00
 ===============================================================

  Coefficient of CSF no.         1 is      0.99777644    9.97776442E-01
  Orbital          1   2   3   4   5
  Spin coupling    2   2   2   2   2

 Printout of coefficients in interval  1.0000E-01 to  3.1623E-01
 ===============================================================
   ( no coefficients )

 Printout of coefficients in interval  5.0000E-02 to  1.0000E-01
 ===============================================================
   ( no coefficients )

 Norm of printed CI vector ..      0.99555783

 Magnitude of CI coefficients
 ============================
 ( Ranges are relative to norm of vector :  1.00E+00 )

  10- 1 to 10- 0         1    0.99555783E+00      0.9955578288
  10- 2 to 10- 1        11    0.41831594E-02      0.9997409882
  10- 3 to 10- 2        13    0.25710369E-03      0.9999980919
  10- 4 to 10- 3        13    0.18808702E-05      0.9999999728
  10- 5 to 10- 4        14    0.26966568E-07      0.9999999997
  10- 6 to 10- 5        15    0.27570923E-09      1.0000000000
  10- 7 to 10- 6         3    0.18661925E-11      1.0000000000
  Number of coefficients less than 10^-11 times norm is          126

  Total CPU  time used in SIRIUS :   0.14 seconds
  Total wall time used in SIRIUS :   1.27 seconds

 
     Date and time (Linux)  : Tue Jul  7 15:32:05 2026
     Host name              : n-62-11-64                              


                     .---------------------------------------.
                     | End of Wave Function Section (SIRIUS) |
                     `---------------------------------------'



                 .------------------------------------------------.
                 | Starting in Dynamic Property Section (RESPONS) |
                 `------------------------------------------------'


 ----------------------------------------------------------------------------------------
  RESPONSE  -  an MCSCF, MC-srDFT, DFT, SOPPA and SOPPA-srDFT response property program
 ----------------------------------------------------------------------------------------

 This is a configuration interaction response calculation.
   Note: this is equivalent to a CI sum-over-states calculation of response properties.


 -------- OUTPUT FROM RESPONSE INPUT PROCESSING --------




  Linear Response single residue calculation
 -------------------------------------------


    4 input options by user.

 Print level                                    : IPRPP  =   2
 Maximum number of iterations for eigenval.eqs. : MAXITP =  60
 Threshold for convergence of eigenvalue eqs.   : THCPP  = 1.000D-03
 Maximum iterations in optimal orbital algorithm: MAXITO =   5

    300 Excitation energies are calculated for symmetry no.    1

      3 property residues are calculated with labels:

               XDIPLEN 
               YDIPLEN 
               ZDIPLEN 

 Old direct access AO file found, SORTA skipped.

 2-el. integral transformation level 4: Total CPU and WALL times (sec)       0.016       0.120


 CI energy            :      -76.030991476418734
 -- inactive part     :        8.996423008985666
 --   active part     :      -85.027414485404393
 -- nuclear repulsion :        8.996423008985666


                         *******************************
                         *** CI response calculation ***
                         *******************************

 ----------------------------------------------------------------
 ----- Linear response calculation
 ----- Symmetry of excitation/property operator(s)    1  ( A  )
 ----------------------------------------------------------------

 Number of excitations of this symmetry          300
 Number of response properties of this symmetry    0
 Number of C6/C8 properties of this symmetry       0


 Perturbation symmetry.     KSYMOP:           1
 Perturbation spin symmetry.TRPLET:           F
 Orbital variables.         KZWOPT:           0
 Configuration variables.   KZCONF:         196
 Total number of variables. KZVAR :         196

 ** RSPVAR ** Number of PP start vectors  300
   exceeds the maximum number of variables  195
   Number of start vectors reset to number of variables



 --- EXCITATION ENERGIES AND TRANSITION MOMENT CALCULATION (MCTDHF) ---

 Operator symmetry = 1  ( A  ); triplet =   F

RSPORT:    1 out of   76 new trial vectors linear dependent

 ** RSPCTL MICROITERATION NUMBER    1

      Root  Residual tot.,    conf., and orb.    Bnorm      Eigenvalue
      ----------------------------------------------------------------
         1    4.10746D-14  4.11D-14  0.00D+00  1.00D+00    3.21926D-01
         2    3.66247D-14  3.66D-14  0.00D+00  1.00D+00    3.99662D-01
         3    4.85282D-14  4.85D-14  0.00D+00  1.00D+00    4.10740D-01
         4    3.61693D-14  3.62D-14  0.00D+00  1.00D+00    4.81930D-01
         5    3.82154D-14  3.82D-14  0.00D+00  1.00D+00    5.46616D-01
         6    3.99643D-14  4.00D-14  0.00D+00  1.00D+00    6.79609D-01
         7    4.76261D-14  4.76D-14  0.00D+00  1.00D+00    9.28251D-01
         8    3.39777D-14  3.40D-14  0.00D+00  1.00D+00    9.69264D-01
         9    3.00055D-14  3.00D-14  0.00D+00  1.00D+00    9.72714D-01
        10    4.37853D-14  4.38D-14  0.00D+00  1.00D+00    1.05619D+00
        11    3.40171D-14  3.40D-14  0.00D+00  1.00D+00    1.06687D+00
        12    3.05852D-14  3.06D-14  0.00D+00  1.00D+00    1.10672D+00
        13    2.99411D-14  2.99D-14  0.00D+00  1.00D+00    1.14156D+00
        14    3.29388D-14  3.29D-14  0.00D+00  1.00D+00    1.14314D+00
        15    4.30966D-14  4.31D-14  0.00D+00  1.00D+00    1.17474D+00
        16    4.71845D-14  4.72D-14  0.00D+00  1.00D+00    1.18063D+00
        17    3.06643D-14  3.07D-14  0.00D+00  1.00D+00    1.18699D+00
        18    3.82275D-14  3.82D-14  0.00D+00  1.00D+00    1.20442D+00
        19    3.54086D-14  3.54D-14  0.00D+00  1.00D+00    1.22959D+00
        20    3.22776D-14  3.23D-14  0.00D+00  1.00D+00    1.23676D+00
        21    3.31799D-14  3.32D-14  0.00D+00  1.00D+00    1.27208D+00
        22    4.01660D-14  4.02D-14  0.00D+00  1.00D+00    1.27887D+00
        23    3.27778D-14  3.28D-14  0.00D+00  1.00D+00    1.29121D+00
        24    4.35013D-14  4.35D-14  0.00D+00  1.00D+00    1.30772D+00
        25    3.23862D-14  3.24D-14  0.00D+00  1.00D+00    1.33795D+00
        26    4.43700D-14  4.44D-14  0.00D+00  1.00D+00    1.38227D+00
        27    3.06513D-14  3.07D-14  0.00D+00  1.00D+00    1.41323D+00
        28    3.32745D-14  3.33D-14  0.00D+00  1.00D+00    1.49811D+00
        29    5.17653D-14  5.18D-14  0.00D+00  1.00D+00    1.55326D+00
        30    3.25066D-14  3.25D-14  0.00D+00  1.00D+00    1.68078D+00
        31    3.32125D-14  3.32D-14  0.00D+00  1.00D+00    1.74912D+00
        32    3.16967D-14  3.17D-14  0.00D+00  1.00D+00    1.87027D+00
        33    4.30983D-14  4.31D-14  0.00D+00  1.00D+00    1.88055D+00
        34    2.96121D-14  2.96D-14  0.00D+00  1.00D+00    1.92717D+00
        35    4.31398D-14  4.31D-14  0.00D+00  1.00D+00    1.94308D+00
        36    3.17911D-14  3.18D-14  0.00D+00  1.00D+00    1.96002D+00
        37    3.93063D-14  3.93D-14  0.00D+00  1.00D+00    2.00761D+00
        38    3.26648D-14  3.27D-14  0.00D+00  1.00D+00    2.01530D+00
        39    2.91813D-14  2.92D-14  0.00D+00  1.00D+00    2.04314D+00
        40    3.11324D-14  3.11D-14  0.00D+00  1.00D+00    2.07326D+00
        41    4.64714D-14  4.65D-14  0.00D+00  1.00D+00    2.07488D+00
        42    3.33532D-14  3.34D-14  0.00D+00  1.00D+00    2.08897D+00
        43    2.90105D-14  2.90D-14  0.00D+00  1.00D+00    2.10404D+00
        44    3.61748D-14  3.62D-14  0.00D+00  1.00D+00    2.12225D+00
        45    3.96589D-14  3.97D-14  0.00D+00  1.00D+00    2.12917D+00
        46    3.00917D-14  3.01D-14  0.00D+00  1.00D+00    2.13386D+00
        47    3.10797D-14  3.11D-14  0.00D+00  1.00D+00    2.14823D+00
        48    2.90912D-14  2.91D-14  0.00D+00  1.00D+00    2.15623D+00
        49    3.45486D-14  3.45D-14  0.00D+00  1.00D+00    2.15787D+00
        50    3.40839D-14  3.41D-14  0.00D+00  1.00D+00    2.17904D+00
        51    3.44853D-14  3.45D-14  0.00D+00  1.00D+00    2.19163D+00
        52    3.91052D-14  3.91D-14  0.00D+00  1.00D+00    2.20199D+00
        53    3.50912D-14  3.51D-14  0.00D+00  1.00D+00    2.24297D+00
        54    3.17783D-14  3.18D-14  0.00D+00  1.00D+00    2.26780D+00
        55    5.06603D-14  5.07D-14  0.00D+00  1.00D+00    2.28324D+00
        56    4.57954D-14  4.58D-14  0.00D+00  1.00D+00    2.32353D+00
        57    2.99302D-14  2.99D-14  0.00D+00  1.00D+00    2.33941D+00
        58    5.89523D-14  5.90D-14  0.00D+00  1.00D+00    2.64308D+00
        59    4.20027D-14  4.20D-14  0.00D+00  1.00D+00    2.68499D+00
        60    3.35509D-14  3.36D-14  0.00D+00  1.00D+00    2.70867D+00
        61    3.35298D-14  3.35D-14  0.00D+00  1.00D+00    2.77560D+00
        62    3.68268D-14  3.68D-14  0.00D+00  1.00D+00    2.78864D+00
        63    4.92534D-14  4.93D-14  0.00D+00  1.00D+00    2.81876D+00
        64    4.34495D-14  4.34D-14  0.00D+00  1.00D+00    2.83894D+00
        65    3.13219D-14  3.13D-14  0.00D+00  1.00D+00    2.85056D+00
        66    3.43842D-14  3.44D-14  0.00D+00  1.00D+00    2.87900D+00
        67    3.47037D-14  3.47D-14  0.00D+00  1.00D+00    2.90176D+00
        68    3.93760D-14  3.94D-14  0.00D+00  1.00D+00    2.92390D+00
        69    4.12599D-14  4.13D-14  0.00D+00  1.00D+00    2.93046D+00
        70    4.60443D-14  4.60D-14  0.00D+00  1.00D+00    2.94175D+00
        71    3.85618D-14  3.86D-14  0.00D+00  1.00D+00    2.96045D+00
        72    3.78259D-14  3.78D-14  0.00D+00  1.00D+00    3.00306D+00
        73    3.75043D-14  3.75D-14  0.00D+00  1.00D+00    3.01336D+00
        74    3.54898D-14  3.55D-14  0.00D+00  1.00D+00    3.05082D+00
        75    4.84934D-14  4.85D-14  0.00D+00  1.00D+00    3.06370D+00
        76    4.93153D-14  4.93D-14  0.00D+00  1.00D+00    3.12634D+00
        77    3.57993D-14  3.58D-14  0.00D+00  1.00D+00    3.13391D+00
        78    4.06440D-14  4.06D-14  0.00D+00  1.00D+00    3.17837D+00
        79    4.72650D-14  4.73D-14  0.00D+00  1.00D+00    3.27764D+00
        80    4.33234D-14  4.33D-14  0.00D+00  1.00D+00    3.32992D+00
        81    3.73713D-14  3.74D-14  0.00D+00  1.00D+00    3.33744D+00
        82    4.66035D-14  4.66D-14  0.00D+00  1.00D+00    3.39543D+00
        83    4.07249D-14  4.07D-14  0.00D+00  1.00D+00    3.40939D+00
        84    4.94954D-14  4.95D-14  0.00D+00  1.00D+00    3.48277D+00
        85    4.94094D-14  4.94D-14  0.00D+00  1.00D+00    3.55347D+00
        86    5.03751D-14  5.04D-14  0.00D+00  1.00D+00    3.59813D+00
        87    6.12742D-14  6.13D-14  0.00D+00  1.00D+00    3.68247D+00
        88    3.94857D-14  3.95D-14  0.00D+00  1.00D+00    3.68378D+00
        89    6.05644D-14  6.06D-14  0.00D+00  1.00D+00    3.74348D+00
        90    5.93318D-14  5.93D-14  0.00D+00  1.00D+00    3.81428D+00
        91    4.56187D-14  4.56D-14  0.00D+00  1.00D+00    4.19690D+00
        92    4.80787D-14  4.81D-14  0.00D+00  1.00D+00    4.20074D+00
        93    4.19415D-14  4.19D-14  0.00D+00  1.00D+00    4.23168D+00
        94    4.98904D-14  4.99D-14  0.00D+00  1.00D+00    4.25522D+00
        95    5.25613D-14  5.26D-14  0.00D+00  1.00D+00    4.26559D+00
        96    5.06560D-14  5.07D-14  0.00D+00  1.00D+00    4.34675D+00
        97    4.54426D-14  4.54D-14  0.00D+00  1.00D+00    4.34978D+00
        98    6.25814D-14  6.26D-14  0.00D+00  1.00D+00    4.37917D+00
        99    1.30565D-13  1.31D-13  0.00D+00  1.00D+00    4.85590D+00
       100    4.96609D-14  4.97D-14  0.00D+00  1.00D+00    4.86207D+00
       101    4.57239D-14  4.57D-14  0.00D+00  1.00D+00    4.90915D+00
       102    1.09499D-13  1.09D-13  0.00D+00  1.00D+00    4.92831D+00
       103    4.34007D-14  4.34D-14  0.00D+00  1.00D+00    4.95298D+00
       104    7.06773D-14  7.07D-14  0.00D+00  1.00D+00    5.10159D+00
       105    1.31683D-13  1.32D-13  0.00D+00  1.00D+00    2.02236D+01
       106    1.36559D-13  1.37D-13  0.00D+00  1.00D+00    2.03040D+01
       107    1.31114D-13  1.31D-13  0.00D+00  1.00D+00    2.10990D+01
       108    8.27252D-14  8.27D-14  0.00D+00  1.00D+00    2.11023D+01
       109    1.58382D-13  1.58D-13  0.00D+00  1.00D+00    2.11284D+01
       110    1.40704D-13  1.41D-13  0.00D+00  1.00D+00    2.11400D+01
       111    1.00720D-13  1.01D-13  0.00D+00  1.00D+00    2.11931D+01
       112    1.29946D-13  1.30D-13  0.00D+00  1.00D+00    2.12302D+01
       113    1.13491D-13  1.13D-13  0.00D+00  1.00D+00    2.13265D+01
       114    9.58245D-14  9.58D-14  0.00D+00  1.00D+00    2.13493D+01
       115    1.58086D-13  1.58D-13  0.00D+00  1.00D+00    2.13811D+01
       116    1.34463D-13  1.34D-13  0.00D+00  1.00D+00    2.13826D+01
       117    1.36431D-13  1.36D-13  0.00D+00  1.00D+00    2.14357D+01
       118    1.12029D-13  1.12D-13  0.00D+00  1.00D+00    2.14693D+01
       119    9.71912D-14  9.72D-14  0.00D+00  1.00D+00    2.19334D+01
       120    1.45935D-13  1.46D-13  0.00D+00  1.00D+00    2.19959D+01

      Root  Residual tot.,    conf., and orb.    Bnorm      Eigenvalue
      ----------------------------------------------------------------
       121    9.58190D-14  9.58D-14  0.00D+00  1.00D+00    2.22256D+01
       122    1.41756D-13  1.42D-13  0.00D+00  1.00D+00    2.22794D+01
       123    9.51424D-14  9.51D-14  0.00D+00  1.00D+00    2.23732D+01
       124    1.05012D-13  1.05D-13  0.00D+00  1.00D+00    2.23869D+01
       125    7.74967D-14  7.75D-14  0.00D+00  1.00D+00    2.23888D+01
       126    1.40682D-13  1.41D-13  0.00D+00  1.00D+00    2.24088D+01
       127    1.35892D-13  1.36D-13  0.00D+00  1.00D+00    2.24249D+01
       128    1.04891D-13  1.05D-13  0.00D+00  1.00D+00    2.24368D+01
       129    1.32665D-13  1.33D-13  0.00D+00  1.00D+00    2.24382D+01
       130    1.27875D-13  1.28D-13  0.00D+00  1.00D+00    2.24632D+01
       131    1.22906D-13  1.23D-13  0.00D+00  1.00D+00    2.25143D+01
       132    1.34907D-13  1.35D-13  0.00D+00  1.00D+00    2.25228D+01
       133    1.36288D-13  1.36D-13  0.00D+00  1.00D+00    2.25337D+01
       134    1.41557D-13  1.42D-13  0.00D+00  1.00D+00    2.25346D+01
       135    1.23229D-13  1.23D-13  0.00D+00  1.00D+00    2.25475D+01
       136    1.21553D-13  1.22D-13  0.00D+00  1.00D+00    2.25623D+01
       137    8.40751D-14  8.41D-14  0.00D+00  1.00D+00    2.25716D+01
       138    1.56103D-13  1.56D-13  0.00D+00  1.00D+00    2.25720D+01
       139    8.40561D-14  8.41D-14  0.00D+00  1.00D+00    2.26069D+01
       140    1.41775D-13  1.42D-13  0.00D+00  1.00D+00    2.26764D+01
       141    1.09211D-13  1.09D-13  0.00D+00  1.00D+00    2.31803D+01
       142    1.06222D-13  1.06D-13  0.00D+00  1.00D+00    2.31885D+01
       143    1.19574D-13  1.20D-13  0.00D+00  1.00D+00    2.32272D+01
       144    1.77562D-13  1.78D-13  0.00D+00  1.00D+00    2.33174D+01
       145    1.40035D-13  1.40D-13  0.00D+00  1.00D+00    2.33325D+01
       146    1.31234D-13  1.31D-13  0.00D+00  1.00D+00    2.33642D+01
       147    1.19507D-13  1.20D-13  0.00D+00  1.00D+00    2.33719D+01
       148    1.22080D-13  1.22D-13  0.00D+00  1.00D+00    2.33969D+01
       149    1.16550D-13  1.17D-13  0.00D+00  1.00D+00    2.34583D+01
       150    1.14991D-13  1.15D-13  0.00D+00  1.00D+00    2.35042D+01
       151    1.49051D-13  1.49D-13  0.00D+00  1.00D+00    2.35359D+01
       152    1.34680D-13  1.35D-13  0.00D+00  1.00D+00    2.35927D+01
       153    1.06942D-13  1.07D-13  0.00D+00  1.00D+00    2.40256D+01
       154    1.20221D-13  1.20D-13  0.00D+00  1.00D+00    2.40271D+01
       155    1.08745D-13  1.09D-13  0.00D+00  1.00D+00    2.40370D+01
       156    1.25733D-13  1.26D-13  0.00D+00  1.00D+00    2.40388D+01
       157    1.47545D-13  1.48D-13  0.00D+00  1.00D+00    2.40611D+01
       158    1.62616D-13  1.63D-13  0.00D+00  1.00D+00    2.40833D+01
       159    1.65638D-13  1.66D-13  0.00D+00  1.00D+00    2.41102D+01
       160    1.19704D-13  1.20D-13  0.00D+00  1.00D+00    2.41173D+01
       161    1.99748D-13  2.00D-13  0.00D+00  1.00D+00    2.41516D+01
       162    1.20734D-13  1.21D-13  0.00D+00  1.00D+00    2.42822D+01
       163    1.87517D-13  1.88D-13  0.00D+00  1.00D+00    2.48991D+01
       164    1.30261D-13  1.30D-13  0.00D+00  1.00D+00    2.49004D+01
       165    1.74128D-13  1.74D-13  0.00D+00  1.00D+00    2.49183D+01
       166    1.98789D-13  1.99D-13  0.00D+00  1.00D+00    2.49329D+01
       167    1.81791D-13  1.82D-13  0.00D+00  1.00D+00    2.49394D+01
       168    1.86340D-13  1.86D-13  0.00D+00  1.00D+00    2.50441D+01
       169    1.57911D-13  1.58D-13  0.00D+00  1.00D+00    2.50493D+01
       170    1.30600D-13  1.31D-13  0.00D+00  1.00D+00    2.50766D+01
       171    1.56708D-13  1.57D-13  0.00D+00  1.00D+00    2.50841D+01
       172    1.60508D-13  1.61D-13  0.00D+00  1.00D+00    2.57592D+01
       173    2.68237D-13  2.68D-13  0.00D+00  1.00D+00    2.57707D+01
       174    1.18089D-13  1.18D-13  0.00D+00  1.00D+00    2.57770D+01
       175    1.48122D-13  1.48D-13  0.00D+00  1.00D+00    4.46236D+01
       176    2.35744D-13  2.36D-13  0.00D+00  1.00D+00    4.48542D+01
       177    2.13244D-13  2.13D-13  0.00D+00  1.00D+00    4.49117D+01
       178    2.18224D-13  2.18D-13  0.00D+00  1.00D+00    4.62034D+01
       179    2.25841D-13  2.26D-13  0.00D+00  1.00D+00    4.62196D+01
       180    1.75130D-13  1.75D-13  0.00D+00  1.00D+00    4.62336D+01
       181    1.49694D-13  1.50D-13  0.00D+00  1.00D+00    4.63552D+01
       182    2.29446D-13  2.29D-13  0.00D+00  1.00D+00    4.63593D+01
       183    2.35009D-13  2.35D-13  0.00D+00  1.00D+00    4.63729D+01
       184    2.07170D-13  2.07D-13  0.00D+00  1.00D+00    4.71020D+01
       185    1.37413D-13  1.37D-13  0.00D+00  1.00D+00    4.72392D+01
       186    2.53139D-13  2.53D-13  0.00D+00  1.00D+00    4.81414D+01
       187    3.30012D-13  3.30D-13  0.00D+00  1.00D+00    4.81703D+01
       188    3.99552D-13  4.00D-13  0.00D+00  1.00D+00    4.81816D+01
       189    3.46214D-13  3.46D-13  0.00D+00  1.00D+00    4.81817D+01
       190    2.14665D-13  2.15D-13  0.00D+00  1.00D+00    4.81980D+01
       191    1.62143D-13  1.62D-13  0.00D+00  1.00D+00    4.82672D+01
       192    1.54156D-13  1.54D-13  0.00D+00  1.00D+00    4.92256D+01
       193    3.85164D-13  3.85D-13  0.00D+00  1.00D+00    4.92429D+01
       194    2.16856D-13  2.17D-13  0.00D+00  1.00D+00    4.92549D+01
       195    1.98570D-13  1.99D-13  0.00D+00  1.00D+00    5.00649D+01
       196    3.75865D-14  3.76D-14  0.00D+00  1.00D+00   -3.21926D-01

 *** THE REQUESTED  195 SOLUTION VECTORS CONVERGED

 Convergence of RSP solution vectors, threshold = 1.00D-03
 ---------------------------------------------------------------
 (dimension of paired reduced space:  390)
 RSP solution vector no.    1; norm of residual   4.11D-14
 RSP solution vector no.    2; norm of residual   3.66D-14
 RSP solution vector no.    3; norm of residual   4.85D-14
 RSP solution vector no.    4; norm of residual   3.62D-14
 RSP solution vector no.    5; norm of residual   3.82D-14
 RSP solution vector no.    6; norm of residual   4.00D-14
 RSP solution vector no.    7; norm of residual   4.76D-14
 RSP solution vector no.    8; norm of residual   3.40D-14
 RSP solution vector no.    9; norm of residual   3.00D-14
 RSP solution vector no.   10; norm of residual   4.38D-14
 RSP solution vector no.   11; norm of residual   3.40D-14
 RSP solution vector no.   12; norm of residual   3.06D-14
 RSP solution vector no.   13; norm of residual   2.99D-14
 RSP solution vector no.   14; norm of residual   3.29D-14
 RSP solution vector no.   15; norm of residual   4.31D-14
 RSP solution vector no.   16; norm of residual   4.72D-14
 RSP solution vector no.   17; norm of residual   3.07D-14
 RSP solution vector no.   18; norm of residual   3.82D-14
 RSP solution vector no.   19; norm of residual   3.54D-14
 RSP solution vector no.   20; norm of residual   3.23D-14
 RSP solution vector no.   21; norm of residual   3.32D-14
 RSP solution vector no.   22; norm of residual   4.02D-14
 RSP solution vector no.   23; norm of residual   3.28D-14
 RSP solution vector no.   24; norm of residual   4.35D-14
 RSP solution vector no.   25; norm of residual   3.24D-14
 RSP solution vector no.   26; norm of residual   4.44D-14
 RSP solution vector no.   27; norm of residual   3.07D-14
 RSP solution vector no.   28; norm of residual   3.33D-14
 RSP solution vector no.   29; norm of residual   5.18D-14
 RSP solution vector no.   30; norm of residual   3.25D-14
 RSP solution vector no.   31; norm of residual   3.32D-14
 RSP solution vector no.   32; norm of residual   3.17D-14
 RSP solution vector no.   33; norm of residual   4.31D-14
 RSP solution vector no.   34; norm of residual   2.96D-14
 RSP solution vector no.   35; norm of residual   4.31D-14
 RSP solution vector no.   36; norm of residual   3.18D-14
 RSP solution vector no.   37; norm of residual   3.93D-14
 RSP solution vector no.   38; norm of residual   3.27D-14
 RSP solution vector no.   39; norm of residual   2.92D-14
 RSP solution vector no.   40; norm of residual   3.11D-14
 RSP solution vector no.   41; norm of residual   4.65D-14
 RSP solution vector no.   42; norm of residual   3.34D-14
 RSP solution vector no.   43; norm of residual   2.90D-14
 RSP solution vector no.   44; norm of residual   3.62D-14
 RSP solution vector no.   45; norm of residual   3.97D-14
 RSP solution vector no.   46; norm of residual   3.01D-14
 RSP solution vector no.   47; norm of residual   3.11D-14
 RSP solution vector no.   48; norm of residual   2.91D-14
 RSP solution vector no.   49; norm of residual   3.45D-14
 RSP solution vector no.   50; norm of residual   3.41D-14
 RSP solution vector no.   51; norm of residual   3.45D-14
 RSP solution vector no.   52; norm of residual   3.91D-14
 RSP solution vector no.   53; norm of residual   3.51D-14
 RSP solution vector no.   54; norm of residual   3.18D-14
 RSP solution vector no.   55; norm of residual   5.07D-14
 RSP solution vector no.   56; norm of residual   4.58D-14
 RSP solution vector no.   57; norm of residual   2.99D-14
 RSP solution vector no.   58; norm of residual   5.90D-14
 RSP solution vector no.   59; norm of residual   4.20D-14
 RSP solution vector no.   60; norm of residual   3.36D-14
 RSP solution vector no.   61; norm of residual   3.35D-14
 RSP solution vector no.   62; norm of residual   3.68D-14
 RSP solution vector no.   63; norm of residual   4.93D-14
 RSP solution vector no.   64; norm of residual   4.34D-14
 RSP solution vector no.   65; norm of residual   3.13D-14
 RSP solution vector no.   66; norm of residual   3.44D-14
 RSP solution vector no.   67; norm of residual   3.47D-14
 RSP solution vector no.   68; norm of residual   3.94D-14
 RSP solution vector no.   69; norm of residual   4.13D-14
 RSP solution vector no.   70; norm of residual   4.60D-14
 RSP solution vector no.   71; norm of residual   3.86D-14
 RSP solution vector no.   72; norm of residual   3.78D-14
 RSP solution vector no.   73; norm of residual   3.75D-14
 RSP solution vector no.   74; norm of residual   3.55D-14
 RSP solution vector no.   75; norm of residual   4.85D-14
 RSP solution vector no.   76; norm of residual   4.93D-14
 RSP solution vector no.   77; norm of residual   3.58D-14
 RSP solution vector no.   78; norm of residual   4.06D-14
 RSP solution vector no.   79; norm of residual   4.73D-14
 RSP solution vector no.   80; norm of residual   4.33D-14
 RSP solution vector no.   81; norm of residual   3.74D-14
 RSP solution vector no.   82; norm of residual   4.66D-14
 RSP solution vector no.   83; norm of residual   4.07D-14
 RSP solution vector no.   84; norm of residual   4.95D-14
 RSP solution vector no.   85; norm of residual   4.94D-14
 RSP solution vector no.   86; norm of residual   5.04D-14
 RSP solution vector no.   87; norm of residual   6.13D-14
 RSP solution vector no.   88; norm of residual   3.95D-14
 RSP solution vector no.   89; norm of residual   6.06D-14
 RSP solution vector no.   90; norm of residual   5.93D-14
 RSP solution vector no.   91; norm of residual   4.56D-14
 RSP solution vector no.   92; norm of residual   4.81D-14
 RSP solution vector no.   93; norm of residual   4.19D-14
 RSP solution vector no.   94; norm of residual   4.99D-14
 RSP solution vector no.   95; norm of residual   5.26D-14
 RSP solution vector no.   96; norm of residual   5.07D-14
 RSP solution vector no.   97; norm of residual   4.54D-14
 RSP solution vector no.   98; norm of residual   6.26D-14
 RSP solution vector no.   99; norm of residual   1.31D-13
 RSP solution vector no.  100; norm of residual   4.97D-14
 RSP solution vector no.  101; norm of residual   4.57D-14
 RSP solution vector no.  102; norm of residual   1.09D-13
 RSP solution vector no.  103; norm of residual   4.34D-14
 RSP solution vector no.  104; norm of residual   7.07D-14
 RSP solution vector no.  105; norm of residual   1.32D-13
 RSP solution vector no.  106; norm of residual   1.37D-13
 RSP solution vector no.  107; norm of residual   1.31D-13
 RSP solution vector no.  108; norm of residual   8.27D-14
 RSP solution vector no.  109; norm of residual   1.58D-13
 RSP solution vector no.  110; norm of residual   1.41D-13
 RSP solution vector no.  111; norm of residual   1.01D-13
 RSP solution vector no.  112; norm of residual   1.30D-13
 RSP solution vector no.  113; norm of residual   1.13D-13
 RSP solution vector no.  114; norm of residual   9.58D-14
 RSP solution vector no.  115; norm of residual   1.58D-13
 RSP solution vector no.  116; norm of residual   1.34D-13
 RSP solution vector no.  117; norm of residual   1.36D-13
 RSP solution vector no.  118; norm of residual   1.12D-13
 RSP solution vector no.  119; norm of residual   9.72D-14
 RSP solution vector no.  120; norm of residual   1.46D-13
 RSP solution vector no.  121; norm of residual   9.58D-14
 RSP solution vector no.  122; norm of residual   1.42D-13
 RSP solution vector no.  123; norm of residual   9.51D-14
 RSP solution vector no.  124; norm of residual   1.05D-13
 RSP solution vector no.  125; norm of residual   7.75D-14
 RSP solution vector no.  126; norm of residual   1.41D-13
 RSP solution vector no.  127; norm of residual   1.36D-13
 RSP solution vector no.  128; norm of residual   1.05D-13
 RSP solution vector no.  129; norm of residual   1.33D-13
 RSP solution vector no.  130; norm of residual   1.28D-13
 RSP solution vector no.  131; norm of residual   1.23D-13
 RSP solution vector no.  132; norm of residual   1.35D-13
 RSP solution vector no.  133; norm of residual   1.36D-13
 RSP solution vector no.  134; norm of residual   1.42D-13
 RSP solution vector no.  135; norm of residual   1.23D-13
 RSP solution vector no.  136; norm of residual   1.22D-13
 RSP solution vector no.  137; norm of residual   8.41D-14
 RSP solution vector no.  138; norm of residual   1.56D-13
 RSP solution vector no.  139; norm of residual   8.41D-14
 RSP solution vector no.  140; norm of residual   1.42D-13
 RSP solution vector no.  141; norm of residual   1.09D-13
 RSP solution vector no.  142; norm of residual   1.06D-13
 RSP solution vector no.  143; norm of residual   1.20D-13
 RSP solution vector no.  144; norm of residual   1.78D-13
 RSP solution vector no.  145; norm of residual   1.40D-13
 RSP solution vector no.  146; norm of residual   1.31D-13
 RSP solution vector no.  147; norm of residual   1.20D-13
 RSP solution vector no.  148; norm of residual   1.22D-13
 RSP solution vector no.  149; norm of residual   1.17D-13
 RSP solution vector no.  150; norm of residual   1.15D-13
 RSP solution vector no.  151; norm of residual   1.49D-13
 RSP solution vector no.  152; norm of residual   1.35D-13
 RSP solution vector no.  153; norm of residual   1.07D-13
 RSP solution vector no.  154; norm of residual   1.20D-13
 RSP solution vector no.  155; norm of residual   1.09D-13
 RSP solution vector no.  156; norm of residual   1.26D-13
 RSP solution vector no.  157; norm of residual   1.48D-13
 RSP solution vector no.  158; norm of residual   1.63D-13
 RSP solution vector no.  159; norm of residual   1.66D-13
 RSP solution vector no.  160; norm of residual   1.20D-13
 RSP solution vector no.  161; norm of residual   2.00D-13
 RSP solution vector no.  162; norm of residual   1.21D-13
 RSP solution vector no.  163; norm of residual   1.88D-13
 RSP solution vector no.  164; norm of residual   1.30D-13
 RSP solution vector no.  165; norm of residual   1.74D-13
 RSP solution vector no.  166; norm of residual   1.99D-13
 RSP solution vector no.  167; norm of residual   1.82D-13
 RSP solution vector no.  168; norm of residual   1.86D-13
 RSP solution vector no.  169; norm of residual   1.58D-13
 RSP solution vector no.  170; norm of residual   1.31D-13
 RSP solution vector no.  171; norm of residual   1.57D-13
 RSP solution vector no.  172; norm of residual   1.61D-13
 RSP solution vector no.  173; norm of residual   2.68D-13
 RSP solution vector no.  174; norm of residual   1.18D-13
 RSP solution vector no.  175; norm of residual   1.48D-13
 RSP solution vector no.  176; norm of residual   2.36D-13
 RSP solution vector no.  177; norm of residual   2.13D-13
 RSP solution vector no.  178; norm of residual   2.18D-13
 RSP solution vector no.  179; norm of residual   2.26D-13
 RSP solution vector no.  180; norm of residual   1.75D-13
 RSP solution vector no.  181; norm of residual   1.50D-13
 RSP solution vector no.  182; norm of residual   2.29D-13
 RSP solution vector no.  183; norm of residual   2.35D-13
 RSP solution vector no.  184; norm of residual   2.07D-13
 RSP solution vector no.  185; norm of residual   1.37D-13
 RSP solution vector no.  186; norm of residual   2.53D-13
 RSP solution vector no.  187; norm of residual   3.30D-13
 RSP solution vector no.  188; norm of residual   4.00D-13
 RSP solution vector no.  189; norm of residual   3.46D-13
 RSP solution vector no.  190; norm of residual   2.15D-13
 RSP solution vector no.  191; norm of residual   1.62D-13
 RSP solution vector no.  192; norm of residual   1.54D-13
 RSP solution vector no.  193; norm of residual   3.85D-13
 RSP solution vector no.  194; norm of residual   2.17D-13
 RSP solution vector no.  195; norm of residual   1.99D-13

 *** RSPCTL MICROITERATIONS CONVERGED

@ Singlet transition operator label: XDIPLEN 
@ STATE NO:    1 *TRANSITION MOMENT: -1.36206233E-15 *ENERGY(eV):   8.7600460    
@ STATE NO:    2 *TRANSITION MOMENT: -2.64703678E-14 *ENERGY(eV):   10.875350    
@ STATE NO:    3 *TRANSITION MOMENT: -0.59896184     *ENERGY(eV):   11.176796    
@ STATE NO:    4 *TRANSITION MOMENT: -5.46278752E-14 *ENERGY(eV):   13.113972    
@ STATE NO:    5 *TRANSITION MOMENT: -1.18905593E-14 *ENERGY(eV):   14.874172    
@ STATE NO:    6 *TRANSITION MOMENT:  0.53917802     *ENERGY(eV):   18.493088    
@ STATE NO:    7 *TRANSITION MOMENT: -4.54799593E-02 *ENERGY(eV):   25.258996    
@ STATE NO:    8 *TRANSITION MOMENT: -2.71547290E-15 *ENERGY(eV):   26.375021    
@ STATE NO:    9 *TRANSITION MOMENT:  1.81249760E-15 *ENERGY(eV):   26.468891    
@ STATE NO:   10 *TRANSITION MOMENT: -2.58204431E-02 *ENERGY(eV):   28.740513    
@ STATE NO:   11 *TRANSITION MOMENT: -6.46316823E-15 *ENERGY(eV):   29.031006    
@ STATE NO:   12 *TRANSITION MOMENT:  1.35815910E-15 *ENERGY(eV):   30.115356    
@ STATE NO:   13 *TRANSITION MOMENT: -7.47968911E-15 *ENERGY(eV):   31.063526    
@ STATE NO:   14 *TRANSITION MOMENT: -3.85102328E-15 *ENERGY(eV):   31.106465    
@ STATE NO:   15 *TRANSITION MOMENT:  5.44630187E-02 *ENERGY(eV):   31.966268    

@ Singlet transition operator label: YDIPLEN 
@ STATE NO:    1 *TRANSITION MOMENT: -4.56851390E-14 *ENERGY(eV):   8.7600460    
@ STATE NO:    2 *TRANSITION MOMENT:  1.79223245E-14 *ENERGY(eV):   10.875350    
@ STATE NO:    3 *TRANSITION MOMENT:  9.26731892E-15 *ENERGY(eV):   11.176796    
@ STATE NO:    4 *TRANSITION MOMENT: -0.63912287     *ENERGY(eV):   13.113972    
@ STATE NO:    5 *TRANSITION MOMENT:  0.93384604     *ENERGY(eV):   14.874172    
@ STATE NO:    6 *TRANSITION MOMENT:  7.28544555E-14 *ENERGY(eV):   18.493088    
@ STATE NO:    7 *TRANSITION MOMENT: -8.79966968E-15 *ENERGY(eV):   25.258996    
@ STATE NO:    8 *TRANSITION MOMENT: -8.64966883E-16 *ENERGY(eV):   26.375021    
@ STATE NO:    9 *TRANSITION MOMENT:  1.14864155E-15 *ENERGY(eV):   26.468891    
@ STATE NO:   10 *TRANSITION MOMENT: -2.82492987E-15 *ENERGY(eV):   28.740513    
@ STATE NO:   11 *TRANSITION MOMENT:  4.76640056E-15 *ENERGY(eV):   29.031006    
@ STATE NO:   12 *TRANSITION MOMENT: -6.79426734E-16 *ENERGY(eV):   30.115356    
@ STATE NO:   13 *TRANSITION MOMENT:  3.81050305E-02 *ENERGY(eV):   31.063526    
@ STATE NO:   14 *TRANSITION MOMENT: -2.10844188E-02 *ENERGY(eV):   31.106465    
@ STATE NO:   15 *TRANSITION MOMENT: -3.36529663E-14 *ENERGY(eV):   31.966268    

@ Singlet transition operator label: ZDIPLEN 
@ STATE NO:    1 *TRANSITION MOMENT: -0.33172127     *ENERGY(eV):   8.7600460    
@ STATE NO:    2 *TRANSITION MOMENT:  1.44667533E-14 *ENERGY(eV):   10.875350    
@ STATE NO:    3 *TRANSITION MOMENT: -7.66944013E-15 *ENERGY(eV):   11.176796    
@ STATE NO:    4 *TRANSITION MOMENT: -3.94256359E-15 *ENERGY(eV):   13.113972    
@ STATE NO:    5 *TRANSITION MOMENT:  5.44566624E-15 *ENERGY(eV):   14.874172    
@ STATE NO:    6 *TRANSITION MOMENT:  3.90278812E-15 *ENERGY(eV):   18.493088    
@ STATE NO:    7 *TRANSITION MOMENT:  5.88487839E-15 *ENERGY(eV):   25.258996    
@ STATE NO:    8 *TRANSITION MOMENT: -9.74741256E-14 *ENERGY(eV):   26.375021    
@ STATE NO:    9 *TRANSITION MOMENT:  3.12697920E-02 *ENERGY(eV):   26.468891    
@ STATE NO:   10 *TRANSITION MOMENT: -1.93126132E-15 *ENERGY(eV):   28.740513    
@ STATE NO:   11 *TRANSITION MOMENT: -4.43836883E-15 *ENERGY(eV):   29.031006    
@ STATE NO:   12 *TRANSITION MOMENT:  4.42213231E-02 *ENERGY(eV):   30.115356    
@ STATE NO:   13 *TRANSITION MOMENT: -9.02170453E-15 *ENERGY(eV):   31.063526    
@ STATE NO:   14 *TRANSITION MOMENT:  1.33636808E-15 *ENERGY(eV):   31.106465    
@ STATE NO:   15 *TRANSITION MOMENT: -1.42987418E-14 *ENERGY(eV):   31.966268    


 **************************************************************************************
 *** @ Excit. operator sym 1 & ref. state sym 1 => excited state symmetry 1  ( A  ) ***
 **************************************************************************************



 @ Excited state no:    1 in symmetry 1  ( A  ) - singlet excitation
 -------------------------------------------------------------------

@ Excitation energy :  0.32192578     au
@                       8.7600460     eV;   70654.540     cm-1;   845.21600     kJ / mol

@ Total energy :       -75.709066     au

@ Operator label: XDIPLEN ; Transition moment : -1.36206233E-15 au
@ Oscillator strength (LENGTH)   :  3.98160761E-31  (X-polarization)

@ Operator label: YDIPLEN ; Transition moment : -4.56851390E-14 au
@ Oscillator strength (LENGTH)   :  4.47934378E-28  (Y-polarization)

@ Operator label: ZDIPLEN ; Transition moment : -0.33172127     au
@ Oscillator strength (LENGTH)   :  2.36162605E-02  (Z-polarization)
@ Total oscillator strength (LENGTH)   :  2.36162605E-02

 Eigenvector for state no.  1

      Index(conf)                         Z operator          Y operator
      ----------                      --------------      --------------
          22                            0.9846313814        0.0000000000
         130                           -0.1059626214        0.0000000000

      194 elements with absolute value ≤ 1.00D-01 are not printed.

 Printout of coefficients in interval  3.1623E-01 to  1.0000E+00
 ===============================================================

  Coefficient of CSF no.        22 is      0.98463138    9.84631381E-01
  Orbital          1   2   3   4   5   6
  Spin coupling    2   2   2   2   1  -1

 Printout of coefficients in interval  1.0000E-01 to  3.1623E-01
 ===============================================================

  Coefficient of CSF no.       130 is     -0.10596262   -1.05962621E-01
  Orbital          1   2   4   3   5   6   7
  Spin coupling    2   2   2   1  -1   1  -1

 Printout of coefficients in interval  1.0000E-01 to  1.0000E-01
 ===============================================================
   ( no coefficients )

 Norm of printed CI vector ..      0.98072703

 Magnitude of CI coefficients
 ============================
 ( Ranges are relative to norm of vector :  1.00E+00 )

  10- 1 to 10- 0         2    0.98072703E+00      0.9807270343
  10- 2 to 10- 1         5    0.19061589E-01      0.9997886237
  10- 3 to 10- 2        10    0.21063555E-03      0.9999992593
  10- 4 to 10- 3         6    0.71561213E-06      0.9999999749
  10- 5 to 10- 4         7    0.24848669E-07      0.9999999997
  10- 6 to 10- 5         6    0.28236855E-09      1.0000000000
  Number of coefficients less than 10^-11 times norm is          160


 @ Excited state no:    2 in symmetry 1  ( A  ) - singlet excitation
 -------------------------------------------------------------------

@ Excitation energy :  0.39966178     au
@                       10.875350     eV;   87715.622     cm-1;   1049.3118     kJ / mol

@ Total energy :       -75.631330     au

@ Operator label: XDIPLEN ; Transition moment : -2.64703678E-14 au
@ Oscillator strength (LENGTH)   :  1.86690111E-28  (X-polarization)

@ Operator label: YDIPLEN ; Transition moment :  1.79223245E-14 au
@ Oscillator strength (LENGTH)   :  8.55834984E-29  (Y-polarization)

@ Operator label: ZDIPLEN ; Transition moment :  1.44667533E-14 au
@ Oscillator strength (LENGTH)   :  5.57626642E-29  (Z-polarization)
@ Total oscillator strength (LENGTH)   :  3.28036273E-28

 Eigenvector for state no.  2

      Index(conf)                         Z operator          Y operator
      ----------                      --------------      --------------
          23                            0.9844529363        0.0000000000
          70                           -0.1217365654        0.0000000000

      194 elements with absolute value ≤ 1.00D-01 are not printed.

 Printout of coefficients in interval  3.1623E-01 to  1.0000E+00
 ===============================================================

  Coefficient of CSF no.        23 is      0.98445294    9.84452936E-01
  Orbital          1   2   3   4   5   7
  Spin coupling    2   2   2   2   1  -1

 Printout of coefficients in interval  1.0000E-01 to  3.1623E-01
 ===============================================================

  Coefficient of CSF no.        70 is     -0.12173657   -1.21736565E-01
  Orbital          1   2   4   7   3   5
  Spin coupling    2   2   2   2   1  -1

 Printout of coefficients in interval  1.0000E-01 to  1.0000E-01
 ===============================================================
   ( no coefficients )

 Norm of printed CI vector ..      0.98396738

 Magnitude of CI coefficients
 ============================
 ( Ranges are relative to norm of vector :  1.00E+00 )

  10- 1 to 10- 0         2    0.98396738E+00      0.9839673751
  10- 2 to 10- 1         6    0.15785306E-01      0.9997526815
  10- 3 to 10- 2        11    0.24683069E-03      0.9999995122
  10- 4 to 10- 3         5    0.47174153E-06      0.9999999839
  10- 5 to 10- 4         8    0.16044764E-07      1.0000000000
  10- 6 to 10- 5         2    0.31110011E-10      1.0000000000
  Number of coefficients less than 10^-11 times norm is          162


 @ Excited state no:    3 in symmetry 1  ( A  ) - singlet excitation
 -------------------------------------------------------------------

@ Excitation energy :  0.41073973     au
@                       11.176796     eV;   90146.949     cm-1;   1078.3970     kJ / mol

@ Total energy :       -75.620252     au

@ Operator label: XDIPLEN ; Transition moment : -0.59896184     au
@ Oscillator strength (LENGTH)   :  9.82366992E-02  (X-polarization)

@ Operator label: YDIPLEN ; Transition moment :  9.26731892E-15 au
@ Oscillator strength (LENGTH)   :  2.35170946E-29  (Y-polarization)

@ Operator label: ZDIPLEN ; Transition moment : -7.66944013E-15 au
[...]
      ----------                      --------------      --------------
          48                            0.2923995845        0.0000000000
         111                            0.9557948969        0.0000000000

      194 elements with absolute value ≤ 1.00D-01 are not printed.

 Printout of coefficients in interval  3.1623E-01 to  1.0000E+00
 ===============================================================

  Coefficient of CSF no.       111 is      0.95579490    9.55794897E-01
  Orbital          2   4   6   7   3   5
  Spin coupling    2   2   2   2   1  -1

 Printout of coefficients in interval  1.0000E-01 to  3.1623E-01
 ===============================================================

  Coefficient of CSF no.        48 is      0.29239958    2.92399584E-01
  Orbital          2   3   4   6   5   7
  Spin coupling    2   2   2   2   1  -1

 Norm of printed CI vector ..      0.99904140

 Magnitude of CI coefficients
 ============================
 ( Ranges are relative to norm of vector :  1.00E+00 )

  10- 1 to 10- 0         2    0.99904140E+00      0.9990414020
  10- 2 to 10- 1         1    0.73677276E-03      0.9997781748
  10- 3 to 10- 2         9    0.22015986E-03      0.9999983346
  10- 4 to 10- 3        14    0.16568592E-05      0.9999999915
  10- 5 to 10- 4         4    0.84133862E-08      0.9999999999
  10- 6 to 10- 5         3    0.10746316E-09      1.0000000000
  10- 7 to 10- 6         1    0.16165345E-12      1.0000000000
  10-11 to 10-10         3    0.30280011E-20      1.0000000000
  Number of coefficients less than 10^-11 times norm is          159


 @ Excited state no:  190 in symmetry 1  ( A  ) - singlet excitation
 -------------------------------------------------------------------

@ Excitation energy :   48.197980     au
@                       1311.5337     eV;   10578234.     cm-1;   126543.78     kJ / mol

@ Total energy :       -27.833012     au

@ Operator label: XDIPLEN ; Transition moment : -1.03215191E-05 au
@ Oscillator strength (LENGTH)   :  3.42314122E-09  (X-polarization)

@ Operator label: YDIPLEN ; Transition moment :  2.00417481E-18 au
@ Oscillator strength (LENGTH)   :  1.29065085E-34  (Y-polarization)

@ Operator label: ZDIPLEN ; Transition moment :  1.85991261E-18 au
@ Oscillator strength (LENGTH)   :  1.11153375E-34  (Z-polarization)
@ Total oscillator strength (LENGTH)   :  3.42314122E-09

 Eigenvector for state no.190

      Index(conf)                         Z operator          Y operator
      ----------                      --------------      --------------
          15                            0.5205057649        0.0000000000
          18                           -0.4303778683        0.0000000000
          20                           -0.6604195905        0.0000000000
          63                            0.2743841718        0.0000000000
          87                           -0.1229180883        0.0000000000
         123                           -0.1022830998        0.0000000000

      190 elements with absolute value ≤ 1.00D-01 are not printed.

 Printout of coefficients in interval  3.1623E-01 to  1.0000E+00
 ===============================================================

  Coefficient of CSF no.        15 is      0.52050576    5.20505765E-01
  Orbital          2   3   4   6   7
  Spin coupling    2   2   2   2   2

  Coefficient of CSF no.        18 is     -0.43037787   -4.30377868E-01
  Orbital          2   3   5   6   7
  Spin coupling    2   2   2   2   2

  Coefficient of CSF no.        20 is     -0.66041959   -6.60419590E-01
  Orbital          2   4   5   6   7
  Spin coupling    2   2   2   2   2

 Printout of coefficients in interval  1.0000E-01 to  3.1623E-01
 ===============================================================

  Coefficient of CSF no.        63 is      0.27438417    2.74384172E-01
  Orbital          2   4   5   6   3   7
  Spin coupling    2   2   2   2   1  -1

  Coefficient of CSF no.        87 is     -0.12291809   -1.22918088E-01
  Orbital          2   3   5   7   4   6
  Spin coupling    2   2   2   2   1  -1

  Coefficient of CSF no.       123 is     -0.10228310   -1.02283100E-01
  Orbital          3   5   6   7   2   4
  Spin coupling    2   2   2   2   1  -1

 Norm of printed CI vector ..      0.99316276

 Magnitude of CI coefficients
 ============================
 ( Ranges are relative to norm of vector :  1.00E+00 )

  10- 1 to 10- 0         6    0.99316276E+00      0.9931627590
  10- 2 to 10- 1         7    0.66206768E-02      0.9997834358
  10- 3 to 10- 2        13    0.21087544E-03      0.9999943112
  10- 4 to 10- 3        25    0.56410521E-05      0.9999999523
  10- 5 to 10- 4        18    0.47684054E-07      0.9999999999
  10- 6 to 10- 5         1    0.59395363E-10      1.0000000000
  Number of coefficients less than 10^-11 times norm is          126


 @ Excited state no:  191 in symmetry 1  ( A  ) - singlet excitation
 -------------------------------------------------------------------

@ Excitation energy :   48.267206     au
@                       1313.4175     eV;   10593427.     cm-1;   126725.53     kJ / mol

@ Total energy :       -27.763785     au

@ Operator label: XDIPLEN ; Transition moment : -4.18120522E-06 au
@ Oscillator strength (LENGTH)   :  5.62553552E-10  (X-polarization)

@ Operator label: YDIPLEN ; Transition moment : -7.98808375E-17 au
@ Oscillator strength (LENGTH)   :  2.05327029E-31  (Y-polarization)

@ Operator label: ZDIPLEN ; Transition moment :  3.60208210E-17 au
@ Oscillator strength (LENGTH)   :  4.17511188E-32  (Z-polarization)
@ Total oscillator strength (LENGTH)   :  5.62553552E-10

 Eigenvector for state no.191

      Index(conf)                         Z operator          Y operator
      ----------                      --------------      --------------
          15                           -0.8466324479        0.0000000000
          18                           -0.3101949405        0.0000000000
          20                           -0.3570059687        0.0000000000
          21                            0.1134354967        0.0000000000
          63                            0.1488577133        0.0000000000
         123                           -0.1139146786        0.0000000000

      190 elements with absolute value ≤ 1.00D-01 are not printed.

 Printout of coefficients in interval  3.1623E-01 to  1.0000E+00
 ===============================================================

  Coefficient of CSF no.        15 is     -0.84663245   -8.46632448E-01
  Orbital          2   3   4   6   7
  Spin coupling    2   2   2   2   2

  Coefficient of CSF no.        20 is     -0.35700597   -3.57005969E-01
  Orbital          2   4   5   6   7
  Spin coupling    2   2   2   2   2

 Printout of coefficients in interval  1.0000E-01 to  3.1623E-01
 ===============================================================

  Coefficient of CSF no.        18 is     -0.31019494   -3.10194941E-01
  Orbital          2   3   5   6   7
  Spin coupling    2   2   2   2   2

  Coefficient of CSF no.        21 is      0.11343550    1.13435497E-01
  Orbital          3   4   5   6   7
  Spin coupling    2   2   2   2   2

  Coefficient of CSF no.        63 is      0.14885771    1.48857713E-01
  Orbital          2   4   5   6   3   7
  Spin coupling    2   2   2   2   1  -1

  Coefficient of CSF no.       123 is     -0.11391468   -1.13914679E-01
  Orbital          3   5   6   7   2   4
  Spin coupling    2   2   2   2   1  -1

 Norm of printed CI vector ..      0.98846345

 Magnitude of CI coefficients
 ============================
 ( Ranges are relative to norm of vector :  1.00E+00 )

  10- 1 to 10- 0         6    0.98846345E+00      0.9884634494
  10- 2 to 10- 1         5    0.11186464E-01      0.9996499139
  10- 3 to 10- 2        12    0.34307307E-03      0.9999929869
  10- 4 to 10- 3        26    0.69626189E-05      0.9999999496
  10- 5 to 10- 4        18    0.50312294E-07      0.9999999999
  10- 6 to 10- 5         3    0.13024232E-09      1.0000000000
  Number of coefficients less than 10^-11 times norm is          126


 @ Excited state no:  192 in symmetry 1  ( A  ) - singlet excitation
 -------------------------------------------------------------------

@ Excitation energy :   49.225636     au
@                       1339.4977     eV;   10803778.     cm-1;   129241.89     kJ / mol

@ Total energy :       -26.805355     au

@ Operator label: XDIPLEN ; Transition moment : -4.75304129E-06 au
@ Oscillator strength (LENGTH)   :  7.41384079E-10  (X-polarization)

@ Operator label: YDIPLEN ; Transition moment :  3.02212042E-18 au
@ Oscillator strength (LENGTH)   :  2.99725443E-34  (Y-polarization)

@ Operator label: ZDIPLEN ; Transition moment : -1.62826859E-17 au
@ Oscillator strength (LENGTH)   :  8.70065946E-33  (Z-polarization)
@ Total oscillator strength (LENGTH)   :  7.41384079E-10

 Eigenvector for state no.192

      Index(conf)                         Z operator          Y operator
      ----------                      --------------      --------------
          18                            0.2875646053        0.0000000000
          21                           -0.2557565320        0.0000000000
          96                            0.2238004055        0.0000000000
         123                           -0.8884362390        0.0000000000

      192 elements with absolute value ≤ 1.00D-01 are not printed.

 Printout of coefficients in interval  3.1623E-01 to  1.0000E+00
 ===============================================================

  Coefficient of CSF no.       123 is     -0.88843624   -8.88436239E-01
  Orbital          3   5   6   7   2   4
  Spin coupling    2   2   2   2   1  -1

 Printout of coefficients in interval  1.0000E-01 to  3.1623E-01
 ===============================================================

  Coefficient of CSF no.        18 is      0.28756461    2.87564605E-01
  Orbital          2   3   5   6   7
  Spin coupling    2   2   2   2   2

  Coefficient of CSF no.        21 is     -0.25575653   -2.55756532E-01
  Orbital          3   4   5   6   7
  Spin coupling    2   2   2   2   2

  Coefficient of CSF no.        96 is      0.22380041    2.23800406E-01
  Orbital          3   4   5   7   2   6
  Spin coupling    2   2   2   2   1  -1

 Norm of printed CI vector ..      0.98751038

 Magnitude of CI coefficients
 ============================
 ( Ranges are relative to norm of vector :  1.00E+00 )

  10- 1 to 10- 0         4    0.98751038E+00      0.9875103782
  10- 2 to 10- 1         5    0.12327315E-01      0.9998376930
  10- 3 to 10- 2         8    0.15932486E-03      0.9999970179
  10- 4 to 10- 3        26    0.29256579E-05      0.9999999435
  10- 5 to 10- 4        23    0.56417114E-07      0.9999999999
  10- 6 to 10- 5         3    0.64657123E-10      1.0000000000
  10- 7 to 10- 6         1    0.13987256E-13      1.0000000000
  Number of coefficients less than 10^-11 times norm is          126


 @ Excited state no:  193 in symmetry 1  ( A  ) - singlet excitation
 -------------------------------------------------------------------

@ Excitation energy :   49.242883     au
@                       1339.9670     eV;   10807564.     cm-1;   129287.17     kJ / mol

@ Total energy :       -26.788108     au

@ Operator label: XDIPLEN ; Transition moment :  1.18509818E-18 au
@ Oscillator strength (LENGTH)   :  4.61063647E-35  (X-polarization)

@ Operator label: YDIPLEN ; Transition moment : -1.24185057E-05 au
@ Oscillator strength (LENGTH)   :  5.06280148E-09  (Y-polarization)

@ Operator label: ZDIPLEN ; Transition moment :  3.79401463E-17 au
@ Oscillator strength (LENGTH)   :  4.72552666E-32  (Z-polarization)
@ Total oscillator strength (LENGTH)   :  5.06280148E-09

 Eigenvector for state no.193

      Index(conf)                         Z operator          Y operator
      ----------                      --------------      --------------
          66                            0.2881786093        0.0000000000
          93                            0.1393540184        0.0000000000
         120                            0.1465298294        0.0000000000
         126                            0.9330689012        0.0000000000

      192 elements with absolute value ≤ 1.00D-01 are not printed.

 Printout of coefficients in interval  3.1623E-01 to  1.0000E+00
 ===============================================================

  Coefficient of CSF no.       126 is      0.93306890    9.33068901E-01
  Orbital          4   5   6   7   2   3
  Spin coupling    2   2   2   2   1  -1

 Printout of coefficients in interval  1.0000E-01 to  3.1623E-01
 ===============================================================

  Coefficient of CSF no.        66 is      0.28817861    2.88178609E-01
  Orbital          3   4   5   6   2   7
  Spin coupling    2   2   2   2   1  -1

  Coefficient of CSF no.        93 is      0.13935402    1.39354018E-01
  Orbital          2   4   5   7   3   6
  Spin coupling    2   2   2   2   1  -1

  Coefficient of CSF no.       120 is      0.14652983    1.46529829E-01
  Orbital          2   5   6   7   3   4
  Spin coupling    2   2   2   2   1  -1

 Norm of printed CI vector ..      0.99455502

 Magnitude of CI coefficients
 ============================
 ( Ranges are relative to norm of vector :  1.00E+00 )

  10- 1 to 10- 0         4    0.99455502E+00      0.9945550186
  10- 2 to 10- 1         3    0.52827100E-02      0.9998377286
  10- 3 to 10- 2         7    0.15900096E-03      0.9999967295
  10- 4 to 10- 3        20    0.32180569E-05      0.9999999476
  10- 5 to 10- 4        19    0.52262120E-07      0.9999999998
  10- 6 to 10- 5         3    0.16504618E-09      1.0000000000
  Number of coefficients less than 10^-11 times norm is          140


 @ Excited state no:  194 in symmetry 1  ( A  ) - singlet excitation
 -------------------------------------------------------------------

@ Excitation energy :   49.254933     au
@                       1340.2949     eV;   10810208.     cm-1;   129318.81     kJ / mol

@ Total energy :       -26.776059     au

@ Operator label: XDIPLEN ; Transition moment :  1.91278667E-16 au
@ Oscillator strength (LENGTH)   :  1.20141084E-30  (X-polarization)

@ Operator label: YDIPLEN ; Transition moment : -2.43236507E-16 au
@ Oscillator strength (LENGTH)   :  1.94274584E-30  (Y-polarization)

@ Operator label: ZDIPLEN ; Transition moment :  2.51894407E-08 au
@ Oscillator strength (LENGTH)   :  2.08350967E-14  (Z-polarization)
@ Total oscillator strength (LENGTH)   :  2.08350967E-14

 Eigenvector for state no.194

      Index(conf)                         Z operator          Y operator
      ----------                      --------------      --------------
          78                           -0.1424400259        0.0000000000
         105                           -0.2257867049        0.0000000000
         114                           -0.9634137359        0.0000000000

      193 elements with absolute value ≤ 1.00D-01 are not printed.

 Printout of coefficients in interval  3.1623E-01 to  1.0000E+00
 ===============================================================

  Coefficient of CSF no.       114 is     -0.96341374   -9.63413736E-01
  Orbital          3   4   6   7   2   5
  Spin coupling    2   2   2   2   1  -1

 Printout of coefficients in interval  1.0000E-01 to  3.1623E-01
 ===============================================================

  Coefficient of CSF no.        78 is     -0.14244003   -1.42440026E-01
  Orbital          2   3   4   7   5   6
  Spin coupling    2   2   2   2   1  -1

  Coefficient of CSF no.       105 is     -0.22578670   -2.25786705E-01
  Orbital          2   3   6   7   4   5
  Spin coupling    2   2   2   2   1  -1

 Printout of coefficients in interval  1.0000E-01 to  1.0000E-01
 ===============================================================
   ( no coefficients )

 Norm of printed CI vector ..      0.99943482

 Magnitude of CI coefficients
 ============================
 ( Ranges are relative to norm of vector :  1.00E+00 )

  10- 1 to 10- 0         3    0.99943482E+00      0.9994348237
  10- 2 to 10- 1         1    0.43385441E-03      0.9998686781
  10- 3 to 10- 2         4    0.12840520E-03      0.9999970833
  10- 4 to 10- 3        15    0.28814555E-05      0.9999999647
  10- 5 to 10- 4        12    0.35247916E-07      1.0000000000
  10- 6 to 10- 5         1    0.68047002E-11      1.0000000000
  Number of coefficients less than 10^-11 times norm is          160


 @ Excited state no:  195 in symmetry 1  ( A  ) - singlet excitation
 -------------------------------------------------------------------

@ Excitation energy :   50.064926     au
@                       1362.3359     eV;   10987981.     cm-1;   131445.44     kJ / mol

@ Total energy :       -25.966065     au

@ Operator label: XDIPLEN ; Transition moment : -2.63313826E-06 au
@ Oscillator strength (LENGTH)   :  2.31414011E-10  (X-polarization)

@ Operator label: YDIPLEN ; Transition moment : -9.27972968E-17 au
@ Oscillator strength (LENGTH)   :  2.87417345E-31  (Y-polarization)

@ Operator label: ZDIPLEN ; Transition moment : -3.23771785E-17 au
@ Oscillator strength (LENGTH)   :  3.49880970E-32  (Z-polarization)
@ Total oscillator strength (LENGTH)   :  2.31414011E-10

 Eigenvector for state no.195

      Index(conf)                         Z operator          Y operator
      ----------                      --------------      --------------
          18                           -0.1232873758        0.0000000000
          21                           -0.9241082161        0.0000000000
          96                            0.1951515521        0.0000000000
         123                            0.2781501638        0.0000000000

      192 elements with absolute value ≤ 1.00D-01 are not printed.

 Printout of coefficients in interval  3.1623E-01 to  1.0000E+00
 ===============================================================

  Coefficient of CSF no.        21 is     -0.92410822   -9.24108216E-01
  Orbital          3   4   5   6   7
  Spin coupling    2   2   2   2   2

 Printout of coefficients in interval  1.0000E-01 to  3.1623E-01
 ===============================================================

  Coefficient of CSF no.        18 is     -0.12328738   -1.23287376E-01
  Orbital          2   3   5   6   7
  Spin coupling    2   2   2   2   2

  Coefficient of CSF no.        96 is      0.19515155    1.95151552E-01
  Orbital          3   4   5   7   2   6
  Spin coupling    2   2   2   2   1  -1

  Coefficient of CSF no.       123 is      0.27815016    2.78150164E-01
  Orbital          3   5   6   7   2   4
  Spin coupling    2   2   2   2   1  -1

 Norm of printed CI vector ..      0.98462741

 Magnitude of CI coefficients
 ============================
 ( Ranges are relative to norm of vector :  1.00E+00 )

  10- 1 to 10- 0         4    0.98462741E+00      0.9846274139
  10- 2 to 10- 1         5    0.15199067E-01      0.9998264807
  10- 3 to 10- 2        10    0.16754931E-03      0.9999940300
  10- 4 to 10- 3        27    0.59122273E-05      0.9999999423
  10- 5 to 10- 4        18    0.57568230E-07      0.9999999998
  10- 6 to 10- 5         6    0.15625313E-09      1.0000000000
  Number of coefficients less than 10^-11 times norm is          126


 Time used in polarization propagator calculation is      0.49 CPU seconds for symmetry 1

  Total CPU  time used in RESPONSE:   0.53 seconds
  Total wall time used in RESPONSE:   1.28 seconds


                   .-------------------------------------------.
                   | End of Dynamic Property Section (RESPONS) |
                   `-------------------------------------------'

  Total CPU  time used in DALTON:   0.72 seconds
  Total wall time used in DALTON:   2.84 seconds

 NOTE:    1 warnings have been issued.
 Check output, result, and error files for "WARNING".

 
     Date and time (Linux)  : Tue Jul  7 15:32:06 2026
     Host name              : n-62-11-64                              
