

     ************************************************************************
     *************** Dalton - An Electronic Structure Program ***************
     ************************************************************************

    This is output from DALTON release Dalton2024.0-dev (2024)
         ( Web site: http://daltonprogram.org )

   ----------------------------------------------------------------------------

    NOTE:
     
    Dalton is an experimental code for the evaluation of molecular
    properties using (MC)SCF, DFT, CI, and CC wave functions.
    The authors accept no responsibility for the performance of
    the code or for the correctness of the results.
     
    The code (in whole or part) is provided under a licence and
    is not to be reproduced for further distribution without
    the written permission of the authors or their representatives.
     
    See the home page "http://daltonprogram.org" for further information.
     
    If results obtained with this code are published,
    the appropriate citations would be both of:
     
       K. Aidas, C. Angeli, K. L. Bak, V. Bakken,
       R. Bast, L. Boman, O. Christiansen, R. Cimiraglia,
       S. Coriani, P. Dahle, E. K. Dalskov, U. Ekstroem,
       T. Enevoldsen, J. J. Eriksen, P. Ettenhuber, B. Fernandez,
       L. Ferrighi, H. Fliegl, L. Frediani, K. Hald, A. Halkier,
       C. Haettig, H. Heiberg, T. Helgaker, A. C. Hennum,
       H. Hettema, E. Hjertenaes, S. Hoest, I.-M. Hoeyvik,
       M. F. Iozzi, B. Jansik, H. J. Aa. Jensen, D. Jonsson,
       P. Joergensen, J. Kauczor, S. Kirpekar,
       T. Kjaergaard, W. Klopper, S. Knecht, R. Kobayashi, H. Koch,
       J. Kongsted, A. Krapp, K. Kristensen, A. Ligabue,
       O. B. Lutnaes, J. I. Melo, K. V. Mikkelsen, R. H. Myhre,
       C. Neiss, C. B. Nielsen, P. Norman, J. Olsen,
       J. M. H. Olsen, A. Osted, M. J. Packer, F. Pawlowski,
       T. B. Pedersen, P. F. Provasi, S. Reine, Z. Rinkevicius,
       T. A. Ruden, K. Ruud, V. Rybkin, P. Salek, C. C. M. Samson,
       A. Sanchez de Meras, T. Saue, S. P. A. Sauer,
       B. Schimmelpfennig, K. Sneskov, A. H. Steindal,
       K. O. Sylvester-Hvid, P. R. Taylor, A. M. Teale,
       E. I. Tellgren, D. P. Tew, A. J. Thorvaldsen, L. Thoegersen,
       O. Vahtras, M. A. Watson, D. J. D. Wilson, M. Ziolkowski
       and H. Agren,
       "The Dalton quantum chemistry program system",
       WIREs Comput. Mol. Sci. 2014, 4:269-284 (doi: 10.1002/wcms.1172)
     
    and
     
       Dalton, a molecular electronic structure program,
       Release Dalton2024.0-dev (2024), see http://daltonprogram.org
   ----------------------------------------------------------------------------

    Authors in alphabetical order (Major contribution(s) in parenthesis):

  Kestutis Aidas,              Vilnius University,        Lithuania   (QM/MM)
  Celestino Angeli,            University of Ferrara,     Italy       (NEVPT2)
  Juan J. Aucar,               Northeast National UniversiArgentina   (LRESC, Relativistic Effects on EFG)
  Keld L. Bak,                 UNI-C,                     Denmark     (AOSOPPA, non-adiabatic coupling, magnetic properties)
  Vebjoern Bakken,             University of Oslo,        Norway      (DALTON; geometry optimizer, symmetry detection)
  Radovan Bast,                UiT The Arctic U. of NorwayNorway      (DALTON installation and execution frameworks)
  Pablo Baudin,                University of Valencia,    Spain       (Cholesky excitation energies)
  Linus Boman,                 NTNU,                      Norway      (Cholesky decomposition and subsystems)
  Bruno N. Cabral Tenorio,     Technical Univ. of Denmark,Denmark     (Lanczos-based CC methods)
  Ove Christiansen,            Aarhus University,         Denmark     (CC module)
  Renzo Cimiraglia,            University of Ferrara,     Italy       (NEVPT2)
  Sonia Coriani,               Technical Univ. of Denmark,Denmark     (CC and RESPONS modules)
  Janusz Cukras,               University of Warsaw,      Poland      (MChD in RESPONS)
  Paal Dahle,                  University of Oslo,        Norway      (Parallelization)
  Erik K. Dalskov,             UNI-C,                     Denmark     (SOPPA)
  Thomas Enevoldsen,           Univ. of Southern Denmark, Denmark     (SOPPA)
  Janus J. Eriksen,            Aarhus University,         Denmark     (Polarizable embedding, TDA)
  Rasmus Faber,                Technical Univ. of Denmark,Denmark     (Vib.avg. NMR w. SOPPA, parallel AO-SOPPA, CVS-CC and EOMCC)
  Tobias Fahleson,             KTH Stockholm,             Sweden      (Damped cubic response)
  Berta Fernandez,             U. of Santiago de CompostelSpain       (Doublet spin, ESR in RESPONS)
  Lara Ferrighi,               Aarhus University,         Denmark     (PCM Cubic response)
  Heike Fliegl,                University of Oslo,        Norway      (CCSD(R12))
  Luca Frediani,               UiT The Arctic U. of NorwayNorway      (PCM)
  Emmanuel Fromager,           Univ. Strasbourg,          France      (MC-srDFT)
  Bin Gao,                     UiT The Arctic U. of NorwayNorway      (Gen1Int library)
  Andre S. P. Gomes,           CNRS/Universite de Lille,  France      (Frozen density embedding)
  Christof Haettig,            Ruhr-University Bochum,    Germany     (CC module)
  Kasper Hald,                 Aarhus University,         Denmark     (CC module)
  Asger Halkier,               Aarhus University,         Denmark     (CC module)
  Frederik Beyer Hansen,       University of Copenhagen,  Denmark     (Parallel AO-SOPPA)
  Erik D. Hedegaard,           Univ. of Southern Denmark, Denmark     (Polarizable embedding, QM/MM, and MC-srDFT)
  Hanne Heiberg,               University of Oslo,        Norway      (Geometry analysis, selected one-electron integrals)
  Trygve Helgaker,             University of Oslo,        Norway      (DALTON; ABACUS, ERI, DFT modules, London, and much more)
  Alf Christian Hennum,        University of Oslo,        Norway      (Parity violation)
  Hinne Hettema,               University of Auckland,    New Zealand (Quadratic response in RESPONS; SIRIUS supersymmetry)
  Andreas E. Hillers-Bendtsen, University of Copenhagen,  Denmark     (MP3)
  Eirik Hjertenaes,            NTNU,                      Norway      (Cholesky decomposition)
  Nicolai Machholdt Hoeyer,    Aarhus University,         Denmark     (MP3)
  Pi A. B. Haase,              University of Copenhagen,  Denmark     (Triplet AO-SOPPA)
  Maria Francesca Iozzi,       University of Oslo,        Norway      (RPA)
  Christoph Jacob,             TU Braunschweig            Germany     (Frozen density embedding)
  Brano Jansik,                Technical Univ. of Ostrava Czech Rep.  (DFT cubic response)
  Hans Joergen Aa. Jensen,     Univ. of Southern Denmark, Denmark     (DALTON; SIRIUS, RESPONS, ABACUS, MC-srDFT, and much more)
  Dan Jonsson,                 UiT The Arctic U. of NorwayNorway      (Cubic response in RESPONS module)
  Poul Joergensen,             Aarhus University,         Denmark     (RESPONS, ABACUS, and CC modules)
  Maciej Kaminski,             University of Warsaw,      Poland      (CPPh in RESPONS)
  Joanna Kauczor,              Linkoeping University,     Sweden      (Complex polarization propagator (CPP) module)
  Sheela Kirpekar,             Univ. of Southern Denmark, Denmark     (Mass-velocity & Darwin integrals)
  Frederik Oersted Kjeldal,    Technical Univ. of Denmark,Denmark     (MP3)
  Erik Kjellgren,              Univ. of Southern Denmark, Denmark     (MC-srDFT)
  Wim Klopper,                 KIT Karlsruhe,             Germany     (R12 code in CC, SIRIUS, and ABACUS modules)
  Stefan Knecht,               ETH Zurich,                Switzerland (Parallel CI and MCSCF, MC-srDFT)
  Rika Kobayashi,              Australian National Univ., Australia   (DIIS in CC, London in MCSCF)
  Henrik Koch,                 NTNU,                      Norway      (CC module, Cholesky decomposition)
  Jacob Kongsted,              Univ. of Southern Denmark, Denmark     (Polarizable embedding, polarizable density embedding, QM/MM)
  Andrea Ligabue,              University of Modena,      Italy       (CTOCD, AOSOPPA)
  Nanna H. List,               Univ. of Southern Denmark, Denmark     (Polarizable embedding)
  Ola B. Lutnaes,              University of Oslo,        Norway      (DFT Hessian)
  Juan I. Melo,                University of Buenos Aires,Argentina   (LRESC, Relativistic Effects on NMR Shieldings)
  Kurt V. Mikkelsen,           University of Copenhagen,  Denmark     (MC-SCRF, QM/MM, and MP3)
  Rolf H. Myhre,               NTNU,                      Norway      (Subsystems and CC3)
  Christian Neiss,             Univ. Erlangen-Nuernberg,  Germany     (CCSD(R12))
  Christian B. Nielsen,        University of Copenhagen,  Denmark     (QM/MM)
  Patrick Norman,              KTH Stockholm,             Sweden      (Cubic response and complex frequency response in RESPONS)
  Jeppe Olsen,                 Aarhus University,         Denmark     (SIRIUS CI/density modules)
  Jogvan Magnus H. Olsen,      Aarhus University,         Denmark     (Polarizable embedding and polarizable density embedding)
  Anders Osted,                Copenhagen University,     Denmark     (QM/MM)
  Martin J. Packer,            University of Sheffield,   UK          (SOPPA)
  Filip Pawlowski,             Kazimierz Wielki UniversityPoland      (CC3)
  Morten N. Pedersen,          Univ. of Southern Denmark, Denmark     (Polarizable embedding)
  Thomas B. Pedersen,          University of Oslo,        Norway      (Cholesky decomposition)
  Patricio F. Provasi,         University of Northeastern,Argentina   (Analysis of coupling constants in localized orbitals)
  Peter Reinholdt,             Univ. of Southern Denmark, Denmark     (Polarizable embedding and polarizable density embedding)
  Zilvinas Rinkevicius,        KTH Stockholm,             Sweden      (open-shell DFT, ESR)
  Elias Rudberg,               KTH Stockholm,             Sweden      (DFT grid and basis info)
  Torgeir A. Ruden,            University of Oslo,        Norway      (Numerical derivatives in ABACUS)
  Kenneth Ruud,                UiT The Arctic U. of NorwayNorway      (DALTON; ABACUS magnetic properties and much more)
  Pawel Salek,                 KTH Stockholm,             Sweden      (DALTON; DFT code)
  Claire C. M. Samson,         University of Karlsruhe    Germany     (Boys localization, r12 integrals in ERI)
  Alfredo Sanchez de Meras,    University of Valencia,    Spain       (CC module, Cholesky decomposition)
  Trond Saue,                  Paul Sabatier University,  France      (direct Fock matrix construction)
  Stephan P. A. Sauer,         University of Copenhagen,  Denmark     (SOPPA(CCSD), SOPPA prop., AOSOPPA, vibrational g-factors)
  Bernd Schimmelpfennig,       Forschungszentrum KarlsruheGermany     (AMFI module)
  Anna K. Schnack-Petersen,    University of Copenhagen,  Denmark     (RPA(D) and HRPA(D) properties in AOSOPPA)
  Kristian Sneskov,            Aarhus University,         Denmark     (Polarizable embedding, QM/MM)
  Arnfinn H. Steindal,         UiT The Arctic U. of NorwayNorway      (parallel QM/MM, polarizable embedding)
  Casper Steinmann,            Aalborg University,        Denmark     (QFIT, polarizable embedding)
  K. O. Sylvester-Hvid,        University of Copenhagen,  Denmark     (MC-SCRF)
  Peter R. Taylor,             VLSCI/Univ. of Melbourne,  Australia   (Symmetry handling ABACUS, integral transformation)
  Andrew M. Teale,             University of Nottingham,  England     (DFT-AC, DFT-D)
  David P. Tew,                University of Bristol,     England     (CCSD(R12))
  Julien Toulouse,             Sorbonne Univ.,            France      (MC-srDFT)
  Olav Vahtras,                KTH Stockholm,             Sweden      (Triplet response, spin-orbit, ESR, TDDFT, open-shell DFT)
  Lucas Visscher,              Vrije Universiteit AmsterdaNetherlands (Frozen density embedding)
  David J. Wilson,             La Trobe University,       Australia   (DFT Hessian and DFT magnetizabilities)
  Luna Zamok,                  University of Copenhagen,  Denmark     (Block Lanczos RPA solver in SOPPA module)
  Hans Agren,                  KTH Stockholm,             Sweden      (SIRIUS module, RESPONS, MC-SCRF solvation)
 --------------------------------------------------------------------------------

     Date and time (Linux)  : Tue Jul  7 10:35:12 2026
     Host name              : n-62-31-24                              

 * Work memory size             :   512000000 =  3.815 gigabytes.

 * Directories for basis set searches:
   1) /work3/jochar/DaltonTests
   2) /zhome/d7/7/119775/My_Codes/Dalton_Release/dalton/build_omp_nov24/basis


Compilation information
-----------------------

 Who compiled             | soco
 Host                     | hpclogin1
 System                   | Linux-6.1.112-1.el9.elrepo.x86_64
 CMake generator          | Unix Makefiles
 Processor                | x86_64
 64-bit integers          | OFF
 MPI                      | OFF
 Fortran compiler         | /appl/intel/2023.2.0.49397/compiler/2023.2.0/linux
                          | /bin/intel64/ifort
 Fortran compiler version | ifort (IFORT) 2021.10.0 20230609
 C compiler               | /appl/intel/2023.2.0.49397/compiler/2023.2.0/linux
                          | /bin/intel64/icc
 C compiler version       | icc (ICC) 2021.10.0 20230609
 C++ compiler             | /appl/intel/2023.2.0.49397/compiler/2023.2.0/linux
                          | /bin/intel64/icpc
 C++ compiler version     | icpc (ICC) 2021.10.0 20230609
 Static linking           | OFF
 Last Git revision        | a531ac4fbf115ebda1c90140ce3fd6aa236a2033
 Git branch               | master
 Configuration time       | 2024-11-14 11:23:30.470039

 * Sequential calculation.


   Content of the .dal input file
 ----------------------------------

**DALTON INPUT
.RUN WAVE FUNCTIONS   !tipo di calcolo
.RUN RESPONSE
**INTEGRALS
.DIPLEN               !integrali dell'operatore dipolo elettrico
**WAVE FUNCTION
.HF
.CI
!*PRINT
!.PRINTL
!   0 11
*SCF INP              !parte da Hartree-Fock
.DOUBLY OCCUPIED
4
.THRESH               !soglia di convergenza
 1.0D-10
*CONFIGURATION INPUT
.SPIN MULTIPLICITY
1
.SYMMETRY
1
.INACTIVE ORBITALS !the inner electrons are kept frozen
0
.CAS SPACE
7
.ELECTRONS
10
**RESPONS
*LINEAR
.THCLR
1.0d-9
.DIPLEN
.SINGLE RESIDUE
.ROOTS
300
**END OF INPUT


   Content of the .mol file
 ----------------------------

BASIS
cc-pVDZ
test VQE
dalton test
Atomtypes=2 Angstrom Nosymmetry
Charge=6.0 Atoms=1
O     0.1035000000000000  0.0000000000000000  0.0
Charge=1.0 Atoms=2
H    -0.4640000000000000  0.7956000000000000  0.0
H    -0.4640000000000000  -0.7956000000000000  0.0


       *******************************************************************
       *********** Output from DALTON general input processing ***********
       *******************************************************************

 --------------------------------------------------------------------------------
   Overall default print level:    0
   Print level for DALTON.STAT:    1

    HERMIT 1- and 2-electron integral sections will be executed
    "Old" integral transformation used (limited to max 255 basis functions)
    Wave function sections will be executed (SIRIUS module)
    Dynamic molecular response properties section will be executed (RESPONSE module)
 --------------------------------------------------------------------------------


   ****************************************************************************
   *************** Output of molecule and basis set information ***************
   ****************************************************************************


    The two title cards from your ".mol" input:
    --------------------------------------------------------------------------------
 1: test VQE
 2: dalton test
    --------------------------------------------------------------------------------

  Coordinates are entered in Angstrom and converted to atomic units.
          - Conversion factor : 1 bohr = 0.52917721 A

  Atomic type no.    1
  --------------------
  Nuclear charge:   6.00000
  Number of symmetry independent centers:    1
  Number of basis sets to read;    2
  Basis set file used for this atomic type with Z =   6 :
     "/zhome/d7/7/119775/My_Codes/Dalton_Release/dalton/build_omp_nov24/basis/cc-pVDZ"

  Atomic type no.    2
  --------------------
  Nuclear charge:   1.00000
  Number of symmetry independent centers:    2
  Number of basis sets to read;    2
  Basis set file used for this atomic type with Z =   1 :
     "/zhome/d7/7/119775/My_Codes/Dalton_Release/dalton/build_omp_nov24/basis/cc-pVDZ"


                         SYMGRP: Point group information
                         -------------------------------

@    Point group: C1 


                                 Isotopic Masses
                                 ---------------

                           O          12.000000
                           H           1.007825
                           H           1.007825

                       Total mass:    14.015650 amu
                       Natural abundance:  98.870 %

 Center-of-mass coordinates (a.u.):    0.041357    0.000000    0.000000
 Center-of-mass coordinates (Angs):    0.021885    0.000000    0.000000


  Atoms and basis sets
  --------------------

  Number of atom types :    2
  Total number of atoms:    3

  Basis set used is "cc-pVDZ" from the basis set library.

  label    atoms   charge   prim   cont     basis
  ----------------------------------------------------------------------
  O           1    6.0000    26    14      [9s4p1d|3s2p1d]                                    
  H           2    1.0000     7     5      [4s1p|2s1p]                                        
  ----------------------------------------------------------------------
  total:      3    8.0000    40    24
  ----------------------------------------------------------------------
  Spherical harmonic basis used.

  Threshold for neglecting AO integrals:  1.00D-12


  Cartesian Coordinates (a.u.)
  ----------------------------

  Total number of coordinates:    9
  O       :     1  x   0.1955866539    2  y   0.0000000000    3  z   0.0000000000
  H       :     4  x  -0.8768329220    5  y   1.5034661050    6  z   0.0000000000
  H       :     7  x  -0.8768329220    8  y  -1.5034661050    9  z   0.0000000000


   Interatomic separations (in Angstrom):
   --------------------------------------

            O           H           H     
            ------      ------      ------
 O     :    0.000000
 H     :    0.977259    0.000000
 H     :    0.977259    1.591200    0.000000


  Max    interatomic separation is    1.5912 Angstrom (    3.0069 Bohr)
  between atoms    3 and    2, "H     " and "H     ".

  Min HX interatomic separation is    0.9773 Angstrom (    1.8468 Bohr)


  Bond distances (Angstrom):
  --------------------------

                  atom 1     atom 2       distance
                  ------     ------       --------
  bond distance:  H          O            0.977259
  bond distance:  H          O            0.977259


  Bond angles (degrees):
  ----------------------

                  atom 1     atom 2     atom 3         angle
                  ------     ------     ------         -----
  bond angle:     H          O          H            109.000




 Principal moments of inertia (u*A**2) and principal axes
 --------------------------------------------------------

   IA       0.555795          0.000000    1.000000    0.000000
   IB       1.275865          1.000000    0.000000    0.000000
   IC       1.831660          0.000000    0.000000    1.000000


 Rotational constants
 --------------------

@    The molecule is planar.

               A                   B                   C

         909289.8431         396107.0071         275913.0898 MHz
           30.330644           13.212708            9.203470 cm-1


@  Nuclear repulsion energy :    6.830458472614 Hartree


                     .---------------------------------------.
                     | Starting in Integral Section (HERMIT) |
                     `---------------------------------------'



 ***************************************************************************************
 ****************** Output from **INTEGRALS input processing (HERMIT) ******************
 ***************************************************************************************



    *************************************************************************
    ****************** Output from HERMIT input processing ******************
    *************************************************************************


 Default print level:        1

 Calculation of one- and two-electron Hamiltonian integrals.

 The following one-electron property integrals are calculated as requested:
          - overlap integrals
          - dipole length integrals

 Center of mass  (bohr):      0.041357451707      0.000000000000      0.000000000000
 Operator center (bohr):      0.000000000000      0.000000000000      0.000000000000
 Gauge origin    (bohr):      0.000000000000      0.000000000000      0.000000000000
 Dipole origin   (bohr):      0.000000000000      0.000000000000      0.000000000000

Calculation of 2-electron integrals are postponed until they are needed.


     ************************************************************************
     ************************** Output from HERINT **************************
     ************************************************************************



                      Nuclear contribution to dipole moments
                      --------------------------------------

                 au               Debye          C m (/(10**-30)

      x     -0.58014592        -1.47458375        -4.91868195
      y      0.00000000         0.00000000         0.00000000
      z      0.00000000         0.00000000         0.00000000


  Total CPU  time used in HERMIT:   0.02 seconds
  Total wall time used in HERMIT:   0.07 seconds


                        .----------------------------------.
                        | End of Integral Section (HERMIT) |
                        `----------------------------------'



                   .--------------------------------------------.
                   | Starting in Wave Function Section (SIRIUS) |
                   `--------------------------------------------'


     WARNING  Reference state is required for CI response and CI-NO
     WARNING  ".STATE" was not specified for "*CI INPUT",
     WARNING  the reference state is set to be state no.  1

 *** Output from Huckel module :

     Using EWMO model:          T
     Using EHT  model:          F
     Number of Huckel orbitals each symmetry:    7

 EWMO - Energy Weighted Maximum Overlap - is a Huckel type method,
        which normally is better than Extended Huckel Theory.
 Reference: Linderberg and Ohrn, Propagators in Quantum Chemistry (Wiley, 1973)

 Huckel EWMO eigenvalues for symmetry :  1
          -11.347822      -1.217320      -0.652833      -0.453354      -0.406900
           -0.098571      -0.094400

 **********************************************************************
 *SIRIUS* a direct, restricted step, second order MCSCF program       *
 **********************************************************************

 
     Date and time (Linux)  : Tue Jul  7 10:35:13 2026
     Host name              : n-62-31-24                              

 Title lines from ".mol" input file:
     test VQE
     dalton test

 Print level on unit LUPRI =   2 is   0
 Print level on unit LUW4  =   2 is   5

@    Configuration interaction calculation.

@    CI response calculation.

@    CI type: user specified active spaces.
@              Type: complete active space calculation (CAS).

@    This is a combination run starting with
@              a restricted, closed shell Hartree-Fock calculation


 Initial molecular orbitals are obtained according to
 ".MOSTART EWMO  " input option

     Wave function specification
     ============================
@    Wave function type        --- CI ---
@    Number of closed shell electrons           0
@    Number of electrons in active shells      10
@    Total charge of the molecule              -2

@    Spin multiplicity and 2 M_S                1         0
@    Total number of symmetries                 1 (point group: C1 )
@    Reference state symmetry                   1 (irrep name : A  )

     Orbital specifications
     ======================
@    Abelian symmetry species          All |    1
@                                          |  A  
                                       --- |  ---
@    Inactive orbitals                   0 |    0
@    Active orbitals                     7 |    7
@    Secondary orbitals                 17 |   17
@    Total number of orbitals           24 |   24
@    Number of basis functions          24 |   24

      -- Initial occupation of symmetries is determined from user input.                      
      -- Initial occupation of symmetries is :
@    Occupied SCF orbitals               4 |    4

     Optimization information
     ========================
@    Number of configurations               196
@    Number of orbital rotations              0
     ------------------------------------------
@    Total number of variables              196

     Maximum number of CI iterations         25
     Threshold for CI convergence      1.00D-05
     Number of CI roots to converge           1

@    Reference state in CI response calculation :       1


 ***********************************************
 ***** DIIS acceleration of SCF iterations *****
 ***********************************************

 C1-DIIS algorithm; max error vectors =    8

 Iter      Total energy        Error norm    Delta(E)  DIIS dim.
 -----------------------------------------------------------------------------

Calculating AOSUPINT

---> (Re)generating AOTWOINT


     ************************************************************************
     ************************** Output from HERINT **************************
     ************************************************************************


 Threshold for neglecting two-electron integrals:  1.00D-12
 HERMIT - Number of two-electron integrals written:       21669 ( 48.0% )
 HERMIT - Megabytes written:                              0.275

     (Precalculated AO two-electron integrals are transformed to P-supermatrix elements.
      Threshold for discarding integrals :  1.00D-12 )

@  1    -38.6863921469        1.34608D+00   -3.87D+01    1
      Virial theorem: -V/T =      2.011693
@    MULPOP   O       0.16; H      -0.08; H      -0.08; 
   1  Level shift: doubly occupied orbital energies shifted by -2.00D-01
 -----------------------------------------------------------------------------
@  2    -38.8441475558        2.83577D-01   -1.58D-01    2
      Virial theorem: -V/T =      1.989915
@    MULPOP   O       0.03; H      -0.01; H      -0.01; 
   2  Level shift: doubly occupied orbital energies shifted by -5.00D-02
 -----------------------------------------------------------------------------
@  3    -38.8535714485        8.17065D-02   -9.42D-03    3
      Virial theorem: -V/T =      1.991112
@    MULPOP   O      -0.00; H       0.00; H       0.00; 
   3  Level shift: doubly occupied orbital energies shifted by -2.50D-02
 -----------------------------------------------------------------------------
@  4    -38.8544963036        1.72546D-02   -9.25D-04    4
      Virial theorem: -V/T =      1.990262
@    MULPOP   O      -0.04; H       0.02; H       0.02; 
 -----------------------------------------------------------------------------
@  5    -38.8545491697        2.48287D-03   -5.29D-05    5
      Virial theorem: -V/T =      1.990390
@    MULPOP   O      -0.05; H       0.03; H       0.03; 
 -----------------------------------------------------------------------------
@  6    -38.8545503414        4.52581D-04   -1.17D-06    6
      Virial theorem: -V/T =      1.990401
@    MULPOP   O      -0.05; H       0.03; H       0.03; 
 -----------------------------------------------------------------------------
@  7    -38.8545503839        7.18468D-05   -4.25D-08    7
      Virial theorem: -V/T =      1.990408
@    MULPOP   O      -0.05; H       0.03; H       0.03; 
 -----------------------------------------------------------------------------
@  8    -38.8545503851        1.30210D-05   -1.21D-09    8
      Virial theorem: -V/T =      1.990409
@    MULPOP   O      -0.05; H       0.03; H       0.03; 
 -----------------------------------------------------------------------------
@  9    -38.8545503851        1.79887D-06   -4.14D-11    8
      Virial theorem: -V/T =      1.990409
@    MULPOP   O      -0.05; H       0.03; H       0.03; 
 -----------------------------------------------------------------------------
@ 10    -38.8545503851        2.41543D-07   -8.24D-13    8
      Virial theorem: -V/T =      1.990409
@    MULPOP   O      -0.05; H       0.03; H       0.03; 
 -----------------------------------------------------------------------------
@ 11    -38.8545503851        2.51243D-08   -1.42D-14    8
      Virial theorem: -V/T =      1.990409
@    MULPOP   O      -0.05; H       0.03; H       0.03; 
 -----------------------------------------------------------------------------
@ 12    -38.8545503851        1.74228D-09    1.42D-14    8
      Virial theorem: -V/T =      1.990409
@    MULPOP   O      -0.05; H       0.03; H       0.03; 
 -----------------------------------------------------------------------------
@ 13    -38.8545503851        2.15133D-10    1.42D-14    8
      Virial theorem: -V/T =      1.990409
@    MULPOP   O      -0.05; H       0.03; H       0.03; 
 -----------------------------------------------------------------------------
@ 14    -38.8545503851        2.72506D-11   -2.84D-14    8

@ *** DIIS converged in  14 iterations !
@     Converged SCF energy, gradient:    -38.854550385126    2.73D-11
    - total time used in SIRFCK :              0.00 seconds

 --- Writing SIRIFC interface file

--------------------------------------------------------------------------------


     .--------------------------------------------------.
     | HF-SCF KT IPs [a.u. & eV] from Koopmans' theorem |
     `--------------------------------------------------'


     HF-SCF KT symmetry 1 ( A  ) in point group C1  -- 4 principal poles with pole strength 1

   ============  ============  ============  ============
      11.259787      0.933645      0.614120      0.377352
     306.394389     25.405776     16.711059     10.268277
   ============  ============  ============  ============

@ Summary of HF-SCF KT ionization potentials [eV]:

@ Symmetry 1 (A  ) :   306.394      25.406      16.711      10.268

  === End of HF-SCF KT output ===
--------------------------------------------------------------------------------


 CPU and wall time for SCF :       0.106       0.523


 ----- Output from SIRIUS CI module (CICTL) -----




 2-el. integral transformation level 0: Total CPU and WALL times (sec)       0.016       0.256

 (CIST1) 8 lowest diagonal elements:

 Element no. Config.no.    Active energy      Total energy

         1 :         22    -45.1412521874    -38.3107937148
         2 :         25    -45.0957185263    -38.2652600537
         3 :          1    -45.0908457504    -38.2603872778
         4 :         23    -45.0733333523    -38.2428748797
         5 :         26    -45.0267948608    -38.1963363881
         6 :          2    -45.0022337519    -38.1717752793
         7 :         37    -44.9668145557    -38.1363560831
         8 :        127    -44.9330557832    -38.1025973106


 (CIST1) number of start vectors is increased from  1 to  2 because of (near) degeneracy

Lowest 2 elements are used as separate start CI vectors.


 Convergence threshold for CI optimization :     0.00001000


 CI root     eigenvalue        residual norm

    1      -38.3021424676        0.1268810136

 CI root     eigenvalue        residual norm

    1      -38.3346750590        0.0158033273

 CI root     eigenvalue        residual norm

    1      -38.3350362960        0.0028259142

 CI root     eigenvalue        residual norm

    1      -38.3350524756        0.0007390843

 CI root     eigenvalue        residual norm

    1      -38.3350533544        0.0002233790

 CI root     eigenvalue        residual norm

    1      -38.3350534159        0.0000475415

 CI root     eigenvalue        residual norm

    1      -38.3350534175        0.0000062930 converged

 The requested root number is now converged.


 *** CI converged in  7 iterations.



@ Final CI energies and residuals in symmetry 1 (irrep A  )
@    1      -38.335053417454773       6.29D-06

 Writing SIRIFC interface file for CI root no. 1

 CPU and wall time for CI :       0.031       0.323


                       .-----------------------------------.
                       | --- Final results from SIRIUS --- |
                       `-----------------------------------'


@    Spin multiplicity:           1
@    Spatial symmetry:            1 ( irrep  A   in C1  )
@    Total charge of molecule:   -2

@    This was a CI calculation.
@    State number:                1

@    Final CI energy:             -38.335053417455
@    Nuclear repulsion:             6.830458472614
@    Electronic energy:           -45.165511890069

@    Final gradient norm:           0.000006293027

 
     Date and time (Linux)  : Tue Jul  7 10:35:13 2026
     Host name              : n-62-31-24                              

 Occupancies of natural orbitals
 -------------------------------

 Symmetry 1  ( A  ) -- Total occupation in this symmetry is  10.000000000

   1.999999460   1.998876608   1.982368137   1.993745163   1.000000000
   0.998405826   0.026604807

  Effective numbers of unpaired electrons this symmetry Eqs. 1) and 2):  2.10  2.00

  Total effective number of unpaired electrons :
  Eq. 1) sum(i) [(2 - n_i) n_i]    =  2.1022
  Eq. 2) sum(i) [(2 - n_i) n_i]**2 =  2.0041
 (Reference: M. Head-Gordon, Chemical Physics Letters 372 (2003) 508-511)

  --- NOTE THAT THE OCCUPATION NUMBERS ARE FOR ANALYSIS PURPOSE ONLY
  --- The orbital coefficients have NOT been transformed
  --- to ordered natural orbitals.

File label for MO orbitals:   7Jul26    CIORB  

 (Only coefficients > 0.0100 are printed.)

 Molecular orbitals for symmetry species 1  (A  )
 ------------------------------------------------

    Orbital         1        2        3        4        5        6        7
   1 O   :1s    -1.0017   0.0288   0.0000   0.0021  -0.0000  -0.0678   0.0000
   2 O   :1s    -0.0088  -0.7436   0.0000  -0.3924  -0.0000   0.1564   0.0000
   3 O   :1s     0.0083   0.1859  -0.0000  -0.1702   0.0000   2.1089  -0.0000
   4 O   :2px    0.0052   0.2041  -0.0000  -0.7723  -0.0000  -0.2334  -0.0000
   5 O   :2py    0.0000   0.0000  -0.6838  -0.0000  -0.0000  -0.0000  -0.4647
   6 O   :2pz    0.0000   0.0000   0.0000   0.0000  -0.6456  -0.0000   0.0000
   7 O   :2px   -0.0040  -0.0871   0.0000  -0.0408  -0.0000  -0.5830   0.0000
   8 O   :2py   -0.0000  -0.0000   0.1725   0.0000   0.0000   0.0000  -1.1878
   9 O   :2pz    0.0000   0.0000   0.0000   0.0000  -0.3856  -0.0000   0.0000
  10 O   :3d2-  -0.0000   0.0000   0.0488  -0.0000   0.0000  -0.0000   0.0554
  12 O   :3d0    0.0015   0.0094   0.0000  -0.0236   0.0000  -0.0309   0.0000
  13 O   :3d1+  -0.0000  -0.0000  -0.0000  -0.0000   0.0328   0.0000  -0.0000
  14 O   :3d2+   0.0003  -0.0040   0.0000   0.0250   0.0000  -0.0043   0.0000
  15 H   :1s     0.0024  -0.4717  -0.5688   0.2281   0.0000   0.0117  -0.0204
  16 H   :1s    -0.0031   0.1983   0.1639  -0.0788  -0.0000  -1.5519   2.1788
  17 H   :2px    0.0006  -0.0159  -0.0170  -0.0108   0.0000  -0.0106   0.0132
  18 H   :2py   -0.0009   0.0299   0.0108  -0.0100   0.0000   0.0214  -0.0270
  19 H   :2pz   -0.0000  -0.0000  -0.0000  -0.0000  -0.0158   0.0000  -0.0000
  20 H   :1s     0.0024  -0.4717   0.5688   0.2281   0.0000   0.0117   0.0204
  21 H   :1s    -0.0031   0.1983  -0.1639  -0.0788   0.0000  -1.5519  -2.1788
  22 H   :2px    0.0006  -0.0159   0.0170  -0.0108   0.0000  -0.0106  -0.0132
  23 H   :2py    0.0009  -0.0299   0.0108   0.0100   0.0000  -0.0214  -0.0270
  24 H   :2pz   -0.0000  -0.0000  -0.0000  -0.0000  -0.0158   0.0000  -0.0000

    Orbital         8        9       10       11       12       13       14
   1 O   :1s     0.0000   0.0340  -0.0000  -0.2644  -0.0000  -0.7132  -0.0000
   2 O   :1s     0.0000  -0.1429  -0.0000  -0.9538  -0.0000  -3.3762  -0.0000
   3 O   :1s    -0.0000  -1.0576   0.0000   1.5506   0.0000   5.8207  -0.0000
   4 O   :2px   -0.0000  -1.0920  -0.0000  -0.7480   0.0000   0.1168   0.0000
   5 O   :2py   -0.4221  -0.0000  -0.0000   0.0000   1.1561  -0.0000  -0.0000
   6 O   :2pz   -0.0000   0.0000  -1.5782  -0.0000  -0.0000   0.0000  -0.0000
   7 O   :2px    0.0000   1.9823  -0.0000   0.4107  -0.0000  -0.9125  -0.0000
   8 O   :2py    1.8809   0.0000   0.0000  -0.0000  -2.1565   0.0000  -0.0000
   9 O   :2pz   -0.0000   0.0000   1.7313  -0.0000  -0.0000   0.0000   0.0000
  10 O   :3d2-   0.0852   0.0000   0.0000   0.0000   0.3982  -0.0000   0.0000
  11 O   :3d1-  -0.0000  -0.0000  -0.0000  -0.0000  -0.0000   0.0000   0.6347
  12 O   :3d0    0.0000  -0.0517   0.0000   0.2423  -0.0000  -0.1225   0.0000
  14 O   :3d2+   0.0000  -0.0516   0.0000   0.1813  -0.0000  -0.0714  -0.0000
  15 H   :1s    -1.0840   0.7905   0.0000  -1.0378  -0.5049  -0.0097   0.0000
  16 H   :1s     0.0426   0.0334  -0.0000   0.5906   1.8455  -1.4125  -0.0000
  17 H   :2px    0.0312  -0.0190   0.0000  -0.0030   0.2160  -0.1667   0.0000
  18 H   :2py   -0.0051  -0.0174   0.0000  -0.2188  -0.1841   0.1970  -0.0000
  19 H   :2pz    0.0000  -0.0000  -0.0908   0.0000   0.0000  -0.0000   0.3429
  20 H   :1s     1.0840   0.7905   0.0000  -1.0378   0.5049  -0.0097   0.0000
  21 H   :1s    -0.0426   0.0334   0.0000   0.5906  -1.8455  -1.4125  -0.0000
  22 H   :2px   -0.0312  -0.0190   0.0000  -0.0030  -0.2160  -0.1667  -0.0000
  23 H   :2py   -0.0051   0.0174   0.0000   0.2188  -0.1841  -0.1970   0.0000
  24 H   :2pz    0.0000  -0.0000  -0.0908   0.0000   0.0000  -0.0000  -0.3429

    Orbital        15       16       17
   1 O   :1s    -0.1236   0.0000   0.0000
   2 O   :1s    -0.4812   0.0000   0.0000
   3 O   :1s     0.8320  -0.0000  -0.0000
   4 O   :2px   -0.3100   0.0000  -0.0000
   5 O   :2py    0.0000   0.0000   0.1996
   6 O   :2pz    0.0000   0.3077  -0.0000
   7 O   :2px   -0.1095   0.0000   0.0000
   8 O   :2py   -0.0000  -0.0000   0.5043
   9 O   :2pz    0.0000  -0.0693  -0.0000
  10 O   :3d2-  -0.0000  -0.0000  -0.0313
  12 O   :3d0    0.4367  -0.0000   0.0000
  13 O   :3d1+  -0.0000   0.7875   0.0000
  14 O   :3d2+  -0.5160  -0.0000   0.0000
  15 H   :1s    -0.2733  -0.0000  -0.4151
  16 H   :1s     0.0143   0.0000   0.0358
  17 H   :2px    0.2908  -0.0000  -0.5474
  18 H   :2py    0.1334  -0.0000  -0.5747
  19 H   :2pz   -0.0000  -0.2685   0.0000
  20 H   :1s    -0.2733  -0.0000   0.4151
  21 H   :1s     0.0143  -0.0000  -0.0358
  22 H   :2px    0.2908  -0.0000   0.5474
  23 H   :2py   -0.1334  -0.0000  -0.5747
  24 H   :2pz   -0.0000  -0.2685   0.0000

 Printout of CI-coefficients abs greater than 0.05000 for root  1
 *** NOTE: this root is the CI reference state ***

 Printout of coefficients in interval  3.1623E-01 to  1.0000E+00
 ===============================================================

  Coefficient of CSF no.        22 is      0.96349201    9.63492011E-01
  Orbital          1   2   3   4   5   6
  Spin coupling    2   2   2   2   1  -1

 Printout of coefficients in interval  1.0000E-01 to  3.1623E-01
 ===============================================================

  Coefficient of CSF no.       129 is     -0.23912463   -2.39124627E-01
  Orbital          1   2   4   3   5   6   7
  Spin coupling    2   2   2   1   1  -1  -1

 Printout of coefficients in interval  5.0000E-02 to  1.0000E-01
 ===============================================================

  Coefficient of CSF no.        37 is      0.05937894    5.93789366E-02
  Orbital          1   2   3   6   4   5
  Spin coupling    2   2   2   2   1  -1

  Coefficient of CSF no.        43 is     -0.06077007   -6.07700746E-02
  Orbital          1   3   4   6   2   5
  Spin coupling    2   2   2   2   1  -1

  Coefficient of CSF no.        67 is     -0.06068743   -6.06874316E-02
  Orbital          1   2   3   7   4   5
  Spin coupling    2   2   2   2   1  -1

 Norm of printed CI vector ..      0.99639927

 Magnitude of CI coefficients
 ============================
 ( Ranges are relative to norm of vector :  1.00E+00 )

  10- 1 to 10- 0         2    0.98549744E+00      0.9854974428
  10- 2 to 10- 1        10    0.14285120E-01      0.9997825626
  10- 3 to 10- 2         6    0.21591413E-03      0.9999984767
  10- 4 to 10- 3         9    0.15146823E-05      0.9999999914
  10- 5 to 10- 4         7    0.85763636E-08      1.0000000000
  10- 6 to 10- 5         1    0.48408571E-11      1.0000000000
  10- 7 to 10- 6         1    0.75589423E-13      1.0000000000
  Number of coefficients less than 10^-11 times norm is          160

  Total CPU  time used in SIRIUS :   0.16 seconds
  Total wall time used in SIRIUS :   0.93 seconds

 
     Date and time (Linux)  : Tue Jul  7 10:35:13 2026
     Host name              : n-62-31-24                              


                     .---------------------------------------.
                     | End of Wave Function Section (SIRIUS) |
                     `---------------------------------------'



                 .------------------------------------------------.
                 | Starting in Dynamic Property Section (RESPONS) |
                 `------------------------------------------------'


 ----------------------------------------------------------------------------------------
  RESPONSE  -  an MCSCF, MC-srDFT, DFT, SOPPA and SOPPA-srDFT response property program
 ----------------------------------------------------------------------------------------

 This is a configuration interaction response calculation.
   Note: this is equivalent to a CI sum-over-states calculation of response properties.


 -------- OUTPUT FROM RESPONSE INPUT PROCESSING --------




  Linear Response single residue calculation
 -------------------------------------------


    4 input options by user.

 Print level                                    : IPRPP  =   2
 Maximum number of iterations for eigenval.eqs. : MAXITP =  60
 Threshold for convergence of eigenvalue eqs.   : THCPP  = 1.000D-03
 Maximum iterations in optimal orbital algorithm: MAXITO =   5

    300 Excitation energies are calculated for symmetry no.    1

      3 property residues are calculated with labels:

               XDIPLEN 
               YDIPLEN 
               ZDIPLEN 

 Old direct access AO file found, SORTA skipped.

 2-el. integral transformation level 4: Total CPU and WALL times (sec)       0.016       0.032


 CI energy            :      -38.335053417454773
 -- inactive part     :        6.830458472614062
 --   active part     :      -45.165511890068835
 -- nuclear repulsion :        6.830458472614062


                         *******************************
                         *** CI response calculation ***
                         *******************************

 ----------------------------------------------------------------
 ----- Linear response calculation
 ----- Symmetry of excitation/property operator(s)    1  ( A  )
 ----------------------------------------------------------------

 Number of excitations of this symmetry          300
 Number of response properties of this symmetry    0
 Number of C6/C8 properties of this symmetry       0


 Perturbation symmetry.     KSYMOP:           1
 Perturbation spin symmetry.TRPLET:           F
 Orbital variables.         KZWOPT:           0
 Configuration variables.   KZCONF:         196
 Total number of variables. KZVAR :         196

 ** RSPVAR ** Number of PP start vectors  300
   exceeds the maximum number of variables  195
   Number of start vectors reset to number of variables



 --- EXCITATION ENERGIES AND TRANSITION MOMENT CALCULATION (MCTDHF) ---

 Operator symmetry = 1  ( A  ); triplet =   F

RSPORT:    1 out of   76 new trial vectors linear dependent

 ** RSPCTL MICROITERATION NUMBER    1

      Root  Residual tot.,    conf., and orb.    Bnorm      Eigenvalue
      ----------------------------------------------------------------
         1    2.10652D-14  2.11D-14  0.00D+00  1.00D+00   -3.29773D-02
         2    2.05758D-14  2.06D-14  0.00D+00  1.00D+00    5.73401D-02
         3    2.16797D-14  2.17D-14  0.00D+00  1.00D+00    6.72513D-02
         4    1.77872D-14  1.78D-14  0.00D+00  1.00D+00    1.15683D-01
         5    1.94600D-14  1.95D-14  0.00D+00  1.00D+00    1.32207D-01
         6    2.05976D-14  2.06D-14  0.00D+00  1.00D+00    1.82567D-01
         7    2.78397D-14  2.78D-14  0.00D+00  1.00D+00    1.84682D-01
         8    2.04319D-14  2.04D-14  0.00D+00  1.00D+00    2.81821D-01
         9    1.95138D-14  1.95D-14  0.00D+00  1.00D+00    2.93008D-01
        10    1.69925D-14  1.70D-14  0.00D+00  1.00D+00    2.96920D-01
        11    1.65094D-14  1.65D-14  0.00D+00  1.00D+00    3.31549D-01
        12    2.02016D-14  2.02D-14  0.00D+00  1.00D+00    3.38836D-01
        13    1.81017D-14  1.81D-14  0.00D+00  1.00D+00    3.69358D-01
        14    2.20001D-14  2.20D-14  0.00D+00  1.00D+00    3.94437D-01
        15    1.86412D-14  1.86D-14  0.00D+00  1.00D+00    4.10498D-01
        16    1.84067D-14  1.84D-14  0.00D+00  1.00D+00    4.14114D-01
        17    1.65206D-14  1.65D-14  0.00D+00  1.00D+00    4.15900D-01
        18    1.92045D-14  1.92D-14  0.00D+00  1.00D+00    4.75808D-01
        19    1.64689D-14  1.65D-14  0.00D+00  1.00D+00    4.83296D-01
        20    1.74907D-14  1.75D-14  0.00D+00  1.00D+00    4.84463D-01
        21    1.65364D-14  1.65D-14  0.00D+00  1.00D+00    4.94977D-01
        22    2.28441D-14  2.28D-14  0.00D+00  1.00D+00    5.24770D-01
        23    2.06571D-14  2.07D-14  0.00D+00  1.00D+00    5.52281D-01
        24    1.57935D-14  1.58D-14  0.00D+00  1.00D+00    5.54190D-01
        25    2.04597D-14  2.05D-14  0.00D+00  1.00D+00    5.85917D-01
        26    1.79343D-14  1.79D-14  0.00D+00  1.00D+00    5.88746D-01
        27    1.64640D-14  1.65D-14  0.00D+00  1.00D+00    6.01678D-01
        28    1.81509D-14  1.82D-14  0.00D+00  1.00D+00    6.30747D-01
        29    1.63998D-14  1.64D-14  0.00D+00  1.00D+00    6.39217D-01
        30    2.58410D-14  2.58D-14  0.00D+00  1.00D+00    6.55963D-01
        31    1.78672D-14  1.79D-14  0.00D+00  1.00D+00    6.59275D-01
        32    1.92421D-14  1.92D-14  0.00D+00  1.00D+00    6.80469D-01
        33    2.12960D-14  2.13D-14  0.00D+00  1.00D+00    6.83513D-01
        34    1.46547D-14  1.47D-14  0.00D+00  1.00D+00    6.84359D-01
        35    1.91179D-14  1.91D-14  0.00D+00  1.00D+00    7.03661D-01
        36    2.46638D-14  2.47D-14  0.00D+00  1.00D+00    7.38164D-01
        37    1.63704D-14  1.64D-14  0.00D+00  1.00D+00    7.51903D-01
        38    2.02365D-14  2.02D-14  0.00D+00  1.00D+00    7.59546D-01
        39    2.05465D-14  2.05D-14  0.00D+00  1.00D+00    7.71550D-01
        40    1.95900D-14  1.96D-14  0.00D+00  1.00D+00    7.96973D-01
        41    1.60088D-14  1.60D-14  0.00D+00  1.00D+00    8.15709D-01
        42    2.01564D-14  2.02D-14  0.00D+00  1.00D+00    8.29166D-01
        43    1.91095D-14  1.91D-14  0.00D+00  1.00D+00    8.49641D-01
        44    1.92607D-14  1.93D-14  0.00D+00  1.00D+00    8.69487D-01
        45    2.15318D-14  2.15D-14  0.00D+00  1.00D+00    8.86720D-01
        46    1.82089D-14  1.82D-14  0.00D+00  1.00D+00    9.20126D-01
        47    2.06363D-14  2.06D-14  0.00D+00  1.00D+00    9.39417D-01
        48    2.29377D-14  2.29D-14  0.00D+00  1.00D+00    9.61860D-01
        49    1.87576D-14  1.88D-14  0.00D+00  1.00D+00    9.67624D-01
        50    1.99184D-14  1.99D-14  0.00D+00  1.00D+00    9.79837D-01
        51    1.48897D-14  1.49D-14  0.00D+00  1.00D+00    9.83867D-01
        52    1.62962D-14  1.63D-14  0.00D+00  1.00D+00    9.90660D-01
        53    1.61913D-14  1.62D-14  0.00D+00  1.00D+00    1.02594D+00
        54    1.72828D-14  1.73D-14  0.00D+00  1.00D+00    1.04249D+00
        55    1.69731D-14  1.70D-14  0.00D+00  1.00D+00    1.04693D+00
        56    2.13581D-14  2.14D-14  0.00D+00  1.00D+00    1.05678D+00
        57    1.68644D-14  1.69D-14  0.00D+00  1.00D+00    1.06008D+00
        58    2.00060D-14  2.00D-14  0.00D+00  1.00D+00    1.06965D+00
        59    1.71015D-14  1.71D-14  0.00D+00  1.00D+00    1.12922D+00
        60    2.51617D-14  2.52D-14  0.00D+00  1.00D+00    1.13245D+00
        61    1.80648D-14  1.81D-14  0.00D+00  1.00D+00    1.13787D+00
        62    1.64213D-14  1.64D-14  0.00D+00  1.00D+00    1.15599D+00
        63    1.75151D-14  1.75D-14  0.00D+00  1.00D+00    1.19925D+00
        64    1.85664D-14  1.86D-14  0.00D+00  1.00D+00    1.20391D+00
        65    2.18928D-14  2.19D-14  0.00D+00  1.00D+00    1.21176D+00
        66    2.24330D-14  2.24D-14  0.00D+00  1.00D+00    1.25304D+00
        67    2.03416D-14  2.03D-14  0.00D+00  1.00D+00    1.26335D+00
        68    2.57488D-14  2.57D-14  0.00D+00  1.00D+00    1.27154D+00
        69    2.10846D-14  2.11D-14  0.00D+00  1.00D+00    1.28755D+00
        70    1.70137D-14  1.70D-14  0.00D+00  1.00D+00    1.30090D+00
        71    2.07005D-14  2.07D-14  0.00D+00  1.00D+00    1.30381D+00
        72    2.24329D-14  2.24D-14  0.00D+00  1.00D+00    1.31261D+00
        73    1.87172D-14  1.87D-14  0.00D+00  1.00D+00    1.37959D+00
        74    2.17631D-14  2.18D-14  0.00D+00  1.00D+00    1.38593D+00
        75    2.52800D-14  2.53D-14  0.00D+00  1.00D+00    1.39024D+00
        76    2.36235D-14  2.36D-14  0.00D+00  1.00D+00    1.42392D+00
        77    2.31459D-14  2.31D-14  0.00D+00  1.00D+00    1.45170D+00
        78    2.41566D-14  2.42D-14  0.00D+00  1.00D+00    1.48832D+00
        79    1.98191D-14  1.98D-14  0.00D+00  1.00D+00    1.53005D+00
        80    2.33713D-14  2.34D-14  0.00D+00  1.00D+00    1.55586D+00
        81    1.79759D-14  1.80D-14  0.00D+00  1.00D+00    1.57610D+00
        82    2.46228D-14  2.46D-14  0.00D+00  1.00D+00    1.59297D+00
        83    2.23277D-14  2.23D-14  0.00D+00  1.00D+00    1.62353D+00
        84    2.27379D-14  2.27D-14  0.00D+00  1.00D+00    1.63758D+00
        85    2.50245D-14  2.50D-14  0.00D+00  1.00D+00    1.65335D+00
        86    2.67526D-14  2.68D-14  0.00D+00  1.00D+00    1.66495D+00
        87    3.67180D-14  3.67D-14  0.00D+00  1.00D+00    1.68730D+00
        88    2.92274D-14  2.92D-14  0.00D+00  1.00D+00    1.72354D+00
        89    2.73678D-14  2.74D-14  0.00D+00  1.00D+00    1.76114D+00
        90    2.20293D-14  2.20D-14  0.00D+00  1.00D+00    1.76277D+00
        91    2.62186D-14  2.62D-14  0.00D+00  1.00D+00    1.80837D+00
        92    2.51596D-14  2.52D-14  0.00D+00  1.00D+00    1.81061D+00
        93    3.28135D-14  3.28D-14  0.00D+00  1.00D+00    1.92085D+00
        94    2.57856D-14  2.58D-14  0.00D+00  1.00D+00    1.93614D+00
        95    2.56330D-14  2.56D-14  0.00D+00  1.00D+00    1.98582D+00
        96    2.97949D-14  2.98D-14  0.00D+00  1.00D+00    2.01070D+00
        97    3.28258D-14  3.28D-14  0.00D+00  1.00D+00    2.03623D+00
        98    2.83356D-14  2.83D-14  0.00D+00  1.00D+00    2.09103D+00
        99    3.07522D-14  3.08D-14  0.00D+00  1.00D+00    2.12729D+00
       100    2.51064D-14  2.51D-14  0.00D+00  1.00D+00    2.14030D+00
       101    5.28751D-14  5.29D-14  0.00D+00  1.00D+00    2.27965D+00
       102    3.49090D-14  3.49D-14  0.00D+00  1.00D+00    2.31656D+00
       103    2.73030D-14  2.73D-14  0.00D+00  1.00D+00    2.39617D+00
       104    8.43138D-14  8.43D-14  0.00D+00  1.00D+00    2.67222D+00
       105    5.24463D-14  5.24D-14  0.00D+00  1.00D+00    1.05237D+01
       106    3.57757D-14  3.58D-14  0.00D+00  1.00D+00    1.05807D+01
       107    7.18488D-14  7.18D-14  0.00D+00  1.00D+00    1.07114D+01
       108    5.43572D-14  5.44D-14  0.00D+00  1.00D+00    1.07290D+01
       109    4.78051D-14  4.78D-14  0.00D+00  1.00D+00    1.08602D+01
       110    7.28666D-14  7.29D-14  0.00D+00  1.00D+00    1.08687D+01
       111    8.34800D-14  8.35D-14  0.00D+00  1.00D+00    1.09100D+01
       112    8.08344D-14  8.08D-14  0.00D+00  1.00D+00    1.09372D+01
       113    7.29119D-14  7.29D-14  0.00D+00  1.00D+00    1.09986D+01
       114    6.74386D-14  6.74D-14  0.00D+00  1.00D+00    1.10384D+01
       115    5.26832D-14  5.27D-14  0.00D+00  1.00D+00    1.10590D+01
       116    5.65925D-14  5.66D-14  0.00D+00  1.00D+00    1.10823D+01
       117    4.23403D-14  4.23D-14  0.00D+00  1.00D+00    1.11462D+01
       118    7.00243D-14  7.00D-14  0.00D+00  1.00D+00    1.11868D+01
       119    5.35884D-14  5.36D-14  0.00D+00  1.00D+00    1.12126D+01
       120    7.73066D-14  7.73D-14  0.00D+00  1.00D+00    1.12290D+01

      Root  Residual tot.,    conf., and orb.    Bnorm      Eigenvalue
      ----------------------------------------------------------------
       121    7.53016D-14  7.53D-14  0.00D+00  1.00D+00    1.12797D+01
       122    6.09965D-14  6.10D-14  0.00D+00  1.00D+00    1.12980D+01
       123    7.19238D-14  7.19D-14  0.00D+00  1.00D+00    1.13531D+01
       124    4.61431D-14  4.61D-14  0.00D+00  1.00D+00    1.13776D+01
       125    4.27849D-14  4.28D-14  0.00D+00  1.00D+00    1.13793D+01
       126    4.66693D-14  4.67D-14  0.00D+00  1.00D+00    1.14064D+01
       127    9.56086D-14  9.56D-14  0.00D+00  1.00D+00    1.14071D+01
       128    7.97276D-14  7.97D-14  0.00D+00  1.00D+00    1.14285D+01
       129    5.74157D-14  5.74D-14  0.00D+00  1.00D+00    1.14815D+01
       130    5.55807D-14  5.56D-14  0.00D+00  1.00D+00    1.14898D+01
       131    5.68705D-14  5.69D-14  0.00D+00  1.00D+00    1.14955D+01
       132    7.41998D-14  7.42D-14  0.00D+00  1.00D+00    1.15609D+01
       133    5.33284D-14  5.33D-14  0.00D+00  1.00D+00    1.15803D+01
       134    6.40176D-14  6.40D-14  0.00D+00  1.00D+00    1.16131D+01
       135    5.54816D-14  5.55D-14  0.00D+00  1.00D+00    1.16153D+01
       136    6.17059D-14  6.17D-14  0.00D+00  1.00D+00    1.16490D+01
       137    6.10769D-14  6.11D-14  0.00D+00  1.00D+00    1.16507D+01
       138    5.34271D-14  5.34D-14  0.00D+00  1.00D+00    1.16886D+01
       139    8.43637D-14  8.44D-14  0.00D+00  1.00D+00    1.17607D+01
       140    7.43376D-14  7.43D-14  0.00D+00  1.00D+00    1.17808D+01
       141    5.68231D-14  5.68D-14  0.00D+00  1.00D+00    1.18395D+01
       142    1.38450D-13  1.38D-13  0.00D+00  1.00D+00    1.18642D+01
       143    5.94136D-14  5.94D-14  0.00D+00  1.00D+00    1.18834D+01
       144    6.23783D-14  6.24D-14  0.00D+00  1.00D+00    1.18862D+01
       145    7.56395D-14  7.56D-14  0.00D+00  1.00D+00    1.19505D+01
       146    1.24157D-13  1.24D-13  0.00D+00  1.00D+00    1.19630D+01
       147    7.16978D-14  7.17D-14  0.00D+00  1.00D+00    1.19905D+01
       148    8.30044D-14  8.30D-14  0.00D+00  1.00D+00    1.20206D+01
       149    5.92138D-14  5.92D-14  0.00D+00  1.00D+00    1.20731D+01
       150    5.00094D-14  5.00D-14  0.00D+00  1.00D+00    1.20778D+01
       151    5.36814D-14  5.37D-14  0.00D+00  1.00D+00    1.20832D+01
       152    7.01346D-14  7.01D-14  0.00D+00  1.00D+00    1.21414D+01
       153    6.42536D-14  6.43D-14  0.00D+00  1.00D+00    1.21607D+01
       154    6.17619D-14  6.18D-14  0.00D+00  1.00D+00    1.21680D+01
       155    4.97188D-14  4.97D-14  0.00D+00  1.00D+00    1.21816D+01
       156    7.86708D-14  7.87D-14  0.00D+00  1.00D+00    1.23036D+01
       157    7.57438D-14  7.57D-14  0.00D+00  1.00D+00    1.23177D+01
       158    7.86876D-14  7.87D-14  0.00D+00  1.00D+00    1.23700D+01
       159    6.99568D-14  7.00D-14  0.00D+00  1.00D+00    1.24012D+01
       160    6.57494D-14  6.57D-14  0.00D+00  1.00D+00    1.24117D+01
       161    8.02190D-14  8.02D-14  0.00D+00  1.00D+00    1.25286D+01
       162    5.28244D-14  5.28D-14  0.00D+00  1.00D+00    1.25859D+01
       163    7.50205D-14  7.50D-14  0.00D+00  1.00D+00    1.26157D+01
       164    6.52003D-14  6.52D-14  0.00D+00  1.00D+00    1.26709D+01
       165    5.69582D-14  5.70D-14  0.00D+00  1.00D+00    1.26810D+01
       166    6.24105D-14  6.24D-14  0.00D+00  1.00D+00    1.26855D+01
       167    8.76469D-14  8.76D-14  0.00D+00  1.00D+00    1.28254D+01
       168    5.79831D-14  5.80D-14  0.00D+00  1.00D+00    1.28720D+01
       169    5.99574D-14  6.00D-14  0.00D+00  1.00D+00    1.29079D+01
       170    9.81339D-14  9.81D-14  0.00D+00  1.00D+00    1.30818D+01
       171    4.88623D-14  4.89D-14  0.00D+00  1.00D+00    1.31162D+01
       172    4.39437D-14  4.39D-14  0.00D+00  1.00D+00    1.31458D+01
       173    7.07677D-14  7.08D-14  0.00D+00  1.00D+00    1.33453D+01
       174    5.53036D-14  5.53D-14  0.00D+00  1.00D+00    1.34713D+01
       175    1.18542D-13  1.19D-13  0.00D+00  1.00D+00    2.39913D+01
       176    1.68673D-13  1.69D-13  0.00D+00  1.00D+00    2.41990D+01
       177    1.43888D-13  1.44D-13  0.00D+00  1.00D+00    2.42240D+01
       178    1.37835D-13  1.38D-13  0.00D+00  1.00D+00    2.45592D+01
       179    1.02608D-13  1.03D-13  0.00D+00  1.00D+00    2.46438D+01
       180    8.38453D-14  8.38D-14  0.00D+00  1.00D+00    2.47994D+01
       181    1.42949D-13  1.43D-13  0.00D+00  1.00D+00    2.48696D+01
       182    1.03440D-13  1.03D-13  0.00D+00  1.00D+00    2.49313D+01
       183    1.23665D-13  1.24D-13  0.00D+00  1.00D+00    2.49919D+01
       184    1.01433D-13  1.01D-13  0.00D+00  1.00D+00    2.53088D+01
       185    1.07220D-13  1.07D-13  0.00D+00  1.00D+00    2.53495D+01
       186    1.86207D-13  1.86D-13  0.00D+00  1.00D+00    2.54293D+01
       187    4.26005D-14  4.26D-14  0.00D+00  1.00D+00    2.55527D+01
       188    1.30759D-13  1.31D-13  0.00D+00  1.00D+00    2.56513D+01
       189    1.44623D-13  1.45D-13  0.00D+00  1.00D+00    2.58380D+01
       190    1.14533D-13  1.15D-13  0.00D+00  1.00D+00    2.59418D+01
       191    1.43230D-13  1.43D-13  0.00D+00  1.00D+00    2.60749D+01
       192    7.67344D-14  7.67D-14  0.00D+00  1.00D+00    2.61728D+01
       193    1.68880D-13  1.69D-13  0.00D+00  1.00D+00    2.64856D+01
       194    1.44271D-13  1.44D-13  0.00D+00  1.00D+00    2.66725D+01
       195    5.61912D-13  5.62D-13  0.00D+00  1.00D+00    2.70041D+01
       196    2.08496D-14  2.08D-14  0.00D+00  1.00D+00    3.29773D-02

 *** THE REQUESTED  195 SOLUTION VECTORS CONVERGED

 Convergence of RSP solution vectors, threshold = 1.00D-03
 ---------------------------------------------------------------
 (dimension of paired reduced space:  390)
 RSP solution vector no.    1; norm of residual   2.11D-14
 RSP solution vector no.    2; norm of residual   2.06D-14
 RSP solution vector no.    3; norm of residual   2.17D-14
 RSP solution vector no.    4; norm of residual   1.78D-14
 RSP solution vector no.    5; norm of residual   1.95D-14
 RSP solution vector no.    6; norm of residual   2.06D-14
 RSP solution vector no.    7; norm of residual   2.78D-14
 RSP solution vector no.    8; norm of residual   2.04D-14
 RSP solution vector no.    9; norm of residual   1.95D-14
 RSP solution vector no.   10; norm of residual   1.70D-14
 RSP solution vector no.   11; norm of residual   1.65D-14
 RSP solution vector no.   12; norm of residual   2.02D-14
 RSP solution vector no.   13; norm of residual   1.81D-14
 RSP solution vector no.   14; norm of residual   2.20D-14
 RSP solution vector no.   15; norm of residual   1.86D-14
 RSP solution vector no.   16; norm of residual   1.84D-14
 RSP solution vector no.   17; norm of residual   1.65D-14
 RSP solution vector no.   18; norm of residual   1.92D-14
 RSP solution vector no.   19; norm of residual   1.65D-14
 RSP solution vector no.   20; norm of residual   1.75D-14
 RSP solution vector no.   21; norm of residual   1.65D-14
 RSP solution vector no.   22; norm of residual   2.28D-14
 RSP solution vector no.   23; norm of residual   2.07D-14
 RSP solution vector no.   24; norm of residual   1.58D-14
 RSP solution vector no.   25; norm of residual   2.05D-14
 RSP solution vector no.   26; norm of residual   1.79D-14
 RSP solution vector no.   27; norm of residual   1.65D-14
 RSP solution vector no.   28; norm of residual   1.82D-14
 RSP solution vector no.   29; norm of residual   1.64D-14
 RSP solution vector no.   30; norm of residual   2.58D-14
 RSP solution vector no.   31; norm of residual   1.79D-14
 RSP solution vector no.   32; norm of residual   1.92D-14
 RSP solution vector no.   33; norm of residual   2.13D-14
 RSP solution vector no.   34; norm of residual   1.47D-14
 RSP solution vector no.   35; norm of residual   1.91D-14
 RSP solution vector no.   36; norm of residual   2.47D-14
 RSP solution vector no.   37; norm of residual   1.64D-14
 RSP solution vector no.   38; norm of residual   2.02D-14
 RSP solution vector no.   39; norm of residual   2.05D-14
 RSP solution vector no.   40; norm of residual   1.96D-14
 RSP solution vector no.   41; norm of residual   1.60D-14
 RSP solution vector no.   42; norm of residual   2.02D-14
 RSP solution vector no.   43; norm of residual   1.91D-14
 RSP solution vector no.   44; norm of residual   1.93D-14
 RSP solution vector no.   45; norm of residual   2.15D-14
 RSP solution vector no.   46; norm of residual   1.82D-14
 RSP solution vector no.   47; norm of residual   2.06D-14
 RSP solution vector no.   48; norm of residual   2.29D-14
 RSP solution vector no.   49; norm of residual   1.88D-14
 RSP solution vector no.   50; norm of residual   1.99D-14
 RSP solution vector no.   51; norm of residual   1.49D-14
 RSP solution vector no.   52; norm of residual   1.63D-14
 RSP solution vector no.   53; norm of residual   1.62D-14
 RSP solution vector no.   54; norm of residual   1.73D-14
 RSP solution vector no.   55; norm of residual   1.70D-14
 RSP solution vector no.   56; norm of residual   2.14D-14
 RSP solution vector no.   57; norm of residual   1.69D-14
 RSP solution vector no.   58; norm of residual   2.00D-14
 RSP solution vector no.   59; norm of residual   1.71D-14
 RSP solution vector no.   60; norm of residual   2.52D-14
 RSP solution vector no.   61; norm of residual   1.81D-14
 RSP solution vector no.   62; norm of residual   1.64D-14
 RSP solution vector no.   63; norm of residual   1.75D-14
 RSP solution vector no.   64; norm of residual   1.86D-14
 RSP solution vector no.   65; norm of residual   2.19D-14
 RSP solution vector no.   66; norm of residual   2.24D-14
 RSP solution vector no.   67; norm of residual   2.03D-14
 RSP solution vector no.   68; norm of residual   2.57D-14
 RSP solution vector no.   69; norm of residual   2.11D-14
 RSP solution vector no.   70; norm of residual   1.70D-14
 RSP solution vector no.   71; norm of residual   2.07D-14
 RSP solution vector no.   72; norm of residual   2.24D-14
 RSP solution vector no.   73; norm of residual   1.87D-14
 RSP solution vector no.   74; norm of residual   2.18D-14
 RSP solution vector no.   75; norm of residual   2.53D-14
 RSP solution vector no.   76; norm of residual   2.36D-14
 RSP solution vector no.   77; norm of residual   2.31D-14
 RSP solution vector no.   78; norm of residual   2.42D-14
 RSP solution vector no.   79; norm of residual   1.98D-14
 RSP solution vector no.   80; norm of residual   2.34D-14
 RSP solution vector no.   81; norm of residual   1.80D-14
 RSP solution vector no.   82; norm of residual   2.46D-14
 RSP solution vector no.   83; norm of residual   2.23D-14
 RSP solution vector no.   84; norm of residual   2.27D-14
 RSP solution vector no.   85; norm of residual   2.50D-14
 RSP solution vector no.   86; norm of residual   2.68D-14
 RSP solution vector no.   87; norm of residual   3.67D-14
 RSP solution vector no.   88; norm of residual   2.92D-14
 RSP solution vector no.   89; norm of residual   2.74D-14
 RSP solution vector no.   90; norm of residual   2.20D-14
 RSP solution vector no.   91; norm of residual   2.62D-14
 RSP solution vector no.   92; norm of residual   2.52D-14
 RSP solution vector no.   93; norm of residual   3.28D-14
 RSP solution vector no.   94; norm of residual   2.58D-14
 RSP solution vector no.   95; norm of residual   2.56D-14
 RSP solution vector no.   96; norm of residual   2.98D-14
 RSP solution vector no.   97; norm of residual   3.28D-14
 RSP solution vector no.   98; norm of residual   2.83D-14
 RSP solution vector no.   99; norm of residual   3.08D-14
 RSP solution vector no.  100; norm of residual   2.51D-14
 RSP solution vector no.  101; norm of residual   5.29D-14
 RSP solution vector no.  102; norm of residual   3.49D-14
 RSP solution vector no.  103; norm of residual   2.73D-14
 RSP solution vector no.  104; norm of residual   8.43D-14
 RSP solution vector no.  105; norm of residual   5.24D-14
 RSP solution vector no.  106; norm of residual   3.58D-14
 RSP solution vector no.  107; norm of residual   7.18D-14
 RSP solution vector no.  108; norm of residual   5.44D-14
 RSP solution vector no.  109; norm of residual   4.78D-14
 RSP solution vector no.  110; norm of residual   7.29D-14
 RSP solution vector no.  111; norm of residual   8.35D-14
 RSP solution vector no.  112; norm of residual   8.08D-14
 RSP solution vector no.  113; norm of residual   7.29D-14
 RSP solution vector no.  114; norm of residual   6.74D-14
 RSP solution vector no.  115; norm of residual   5.27D-14
 RSP solution vector no.  116; norm of residual   5.66D-14
 RSP solution vector no.  117; norm of residual   4.23D-14
 RSP solution vector no.  118; norm of residual   7.00D-14
 RSP solution vector no.  119; norm of residual   5.36D-14
 RSP solution vector no.  120; norm of residual   7.73D-14
 RSP solution vector no.  121; norm of residual   7.53D-14
 RSP solution vector no.  122; norm of residual   6.10D-14
 RSP solution vector no.  123; norm of residual   7.19D-14
 RSP solution vector no.  124; norm of residual   4.61D-14
 RSP solution vector no.  125; norm of residual   4.28D-14
 RSP solution vector no.  126; norm of residual   4.67D-14
 RSP solution vector no.  127; norm of residual   9.56D-14
 RSP solution vector no.  128; norm of residual   7.97D-14
 RSP solution vector no.  129; norm of residual   5.74D-14
 RSP solution vector no.  130; norm of residual   5.56D-14
 RSP solution vector no.  131; norm of residual   5.69D-14
 RSP solution vector no.  132; norm of residual   7.42D-14
 RSP solution vector no.  133; norm of residual   5.33D-14
 RSP solution vector no.  134; norm of residual   6.40D-14
 RSP solution vector no.  135; norm of residual   5.55D-14
 RSP solution vector no.  136; norm of residual   6.17D-14
 RSP solution vector no.  137; norm of residual   6.11D-14
 RSP solution vector no.  138; norm of residual   5.34D-14
 RSP solution vector no.  139; norm of residual   8.44D-14
 RSP solution vector no.  140; norm of residual   7.43D-14
 RSP solution vector no.  141; norm of residual   5.68D-14
 RSP solution vector no.  142; norm of residual   1.38D-13
 RSP solution vector no.  143; norm of residual   5.94D-14
 RSP solution vector no.  144; norm of residual   6.24D-14
 RSP solution vector no.  145; norm of residual   7.56D-14
 RSP solution vector no.  146; norm of residual   1.24D-13
 RSP solution vector no.  147; norm of residual   7.17D-14
 RSP solution vector no.  148; norm of residual   8.30D-14
 RSP solution vector no.  149; norm of residual   5.92D-14
 RSP solution vector no.  150; norm of residual   5.00D-14
 RSP solution vector no.  151; norm of residual   5.37D-14
 RSP solution vector no.  152; norm of residual   7.01D-14
 RSP solution vector no.  153; norm of residual   6.43D-14
 RSP solution vector no.  154; norm of residual   6.18D-14
 RSP solution vector no.  155; norm of residual   4.97D-14
 RSP solution vector no.  156; norm of residual   7.87D-14
 RSP solution vector no.  157; norm of residual   7.57D-14
 RSP solution vector no.  158; norm of residual   7.87D-14
 RSP solution vector no.  159; norm of residual   7.00D-14
 RSP solution vector no.  160; norm of residual   6.57D-14
 RSP solution vector no.  161; norm of residual   8.02D-14
 RSP solution vector no.  162; norm of residual   5.28D-14
 RSP solution vector no.  163; norm of residual   7.50D-14
 RSP solution vector no.  164; norm of residual   6.52D-14
 RSP solution vector no.  165; norm of residual   5.70D-14
 RSP solution vector no.  166; norm of residual   6.24D-14
 RSP solution vector no.  167; norm of residual   8.76D-14
 RSP solution vector no.  168; norm of residual   5.80D-14
 RSP solution vector no.  169; norm of residual   6.00D-14
 RSP solution vector no.  170; norm of residual   9.81D-14
 RSP solution vector no.  171; norm of residual   4.89D-14
 RSP solution vector no.  172; norm of residual   4.39D-14
 RSP solution vector no.  173; norm of residual   7.08D-14
 RSP solution vector no.  174; norm of residual   5.53D-14
 RSP solution vector no.  175; norm of residual   1.19D-13
 RSP solution vector no.  176; norm of residual   1.69D-13
 RSP solution vector no.  177; norm of residual   1.44D-13
 RSP solution vector no.  178; norm of residual   1.38D-13
 RSP solution vector no.  179; norm of residual   1.03D-13
 RSP solution vector no.  180; norm of residual   8.38D-14
 RSP solution vector no.  181; norm of residual   1.43D-13
 RSP solution vector no.  182; norm of residual   1.03D-13
 RSP solution vector no.  183; norm of residual   1.24D-13
 RSP solution vector no.  184; norm of residual   1.01D-13
 RSP solution vector no.  185; norm of residual   1.07D-13
 RSP solution vector no.  186; norm of residual   1.86D-13
 RSP solution vector no.  187; norm of residual   4.26D-14
 RSP solution vector no.  188; norm of residual   1.31D-13
 RSP solution vector no.  189; norm of residual   1.45D-13
 RSP solution vector no.  190; norm of residual   1.15D-13
 RSP solution vector no.  191; norm of residual   1.43D-13
 RSP solution vector no.  192; norm of residual   7.67D-14
 RSP solution vector no.  193; norm of residual   1.69D-13
 RSP solution vector no.  194; norm of residual   1.44D-13
 RSP solution vector no.  195; norm of residual   5.62D-13

 *** RSPCTL MICROITERATIONS CONVERGED

@ Singlet transition operator label: XDIPLEN 
@ STATE NO:    1 *TRANSITION MOMENT: -5.78053840E-14 *ENERGY(eV): -0.89735668    
@ STATE NO:    2 *TRANSITION MOMENT: -6.88921449E-14 *ENERGY(eV):   1.5603036    
@ STATE NO:    3 *TRANSITION MOMENT:  2.32522872E-13 *ENERGY(eV):   1.8300003    
@ STATE NO:    4 *TRANSITION MOMENT:  3.40607148E-15 *ENERGY(eV):   3.1478940    
@ STATE NO:    5 *TRANSITION MOMENT: -1.09240775E-14 *ENERGY(eV):   3.5975372    
@ STATE NO:    6 *TRANSITION MOMENT:  2.45388213E-12 *ENERGY(eV):   4.9679002    
@ STATE NO:    7 *TRANSITION MOMENT:  0.45213002     *ENERGY(eV):   5.0254588    
@ STATE NO:    8 *TRANSITION MOMENT:  9.19222906E-15 *ENERGY(eV):   7.6687386    
@ STATE NO:    9 *TRANSITION MOMENT:  1.57858095E-14 *ENERGY(eV):   7.9731476    
@ STATE NO:   10 *TRANSITION MOMENT: -4.30713660E-15 *ENERGY(eV):   8.0796050    
@ STATE NO:   11 *TRANSITION MOMENT:  9.32787405E-15 *ENERGY(eV):   9.0219185    
@ STATE NO:   12 *TRANSITION MOMENT:  1.61372195E-13 *ENERGY(eV):   9.2201843    
@ STATE NO:   13 *TRANSITION MOMENT: -1.41859152E-12 *ENERGY(eV):   10.050731    
@ STATE NO:   14 *TRANSITION MOMENT:  8.21959364E-02 *ENERGY(eV):   10.733175    
@ STATE NO:   15 *TRANSITION MOMENT: -0.72395657     *ENERGY(eV):   11.170228    

@ Singlet transition operator label: YDIPLEN 
@ STATE NO:    1 *TRANSITION MOMENT:  7.52182053E-14 *ENERGY(eV): -0.89735668    
@ STATE NO:    2 *TRANSITION MOMENT:  6.89201683E-14 *ENERGY(eV):   1.5603036    
@ STATE NO:    3 *TRANSITION MOMENT:   1.8288228     *ENERGY(eV):   1.8300003    
@ STATE NO:    4 *TRANSITION MOMENT:  4.07130094E-14 *ENERGY(eV):   3.1478940    
@ STATE NO:    5 *TRANSITION MOMENT:  1.22078056E-13 *ENERGY(eV):   3.5975372    
@ STATE NO:    6 *TRANSITION MOMENT: -0.86627854     *ENERGY(eV):   4.9679002    
@ STATE NO:    7 *TRANSITION MOMENT:  3.18517604E-12 *ENERGY(eV):   5.0254588    
@ STATE NO:    8 *TRANSITION MOMENT: -1.04174471E-13 *ENERGY(eV):   7.6687386    
@ STATE NO:    9 *TRANSITION MOMENT:  5.02195442E-14 *ENERGY(eV):   7.9731476    
@ STATE NO:   10 *TRANSITION MOMENT: -3.71259180E-14 *ENERGY(eV):   8.0796050    
@ STATE NO:   11 *TRANSITION MOMENT: -2.26556703E-13 *ENERGY(eV):   9.0219185    
@ STATE NO:   12 *TRANSITION MOMENT:   1.0064666     *ENERGY(eV):   9.2201843    
@ STATE NO:   13 *TRANSITION MOMENT: -0.16432874     *ENERGY(eV):   10.050731    
@ STATE NO:   14 *TRANSITION MOMENT: -9.49102646E-13 *ENERGY(eV):   10.733175    
@ STATE NO:   15 *TRANSITION MOMENT:  3.23501461E-12 *ENERGY(eV):   11.170228    

@ Singlet transition operator label: ZDIPLEN 
@ STATE NO:    1 *TRANSITION MOMENT: -0.47961512     *ENERGY(eV): -0.89735668    
@ STATE NO:    2 *TRANSITION MOMENT:  0.37272648     *ENERGY(eV):   1.5603036    
@ STATE NO:    3 *TRANSITION MOMENT:  5.24113629E-14 *ENERGY(eV):   1.8300003    
@ STATE NO:    4 *TRANSITION MOMENT: -0.52486257     *ENERGY(eV):   3.1478940    
@ STATE NO:    5 *TRANSITION MOMENT: -5.91384460E-14 *ENERGY(eV):   3.5975372    
@ STATE NO:    6 *TRANSITION MOMENT:  1.19500280E-14 *ENERGY(eV):   4.9679002    
@ STATE NO:    7 *TRANSITION MOMENT: -1.22335853E-14 *ENERGY(eV):   5.0254588    
@ STATE NO:    8 *TRANSITION MOMENT: -3.74249951E-13 *ENERGY(eV):   7.6687386    
@ STATE NO:    9 *TRANSITION MOMENT: -9.29407934E-02 *ENERGY(eV):   7.9731476    
@ STATE NO:   10 *TRANSITION MOMENT:  1.47346152E-12 *ENERGY(eV):   8.0796050    
@ STATE NO:   11 *TRANSITION MOMENT:  0.22675090     *ENERGY(eV):   9.0219185    
@ STATE NO:   12 *TRANSITION MOMENT:  5.36562047E-14 *ENERGY(eV):   9.2201843    
@ STATE NO:   13 *TRANSITION MOMENT:  4.47810560E-15 *ENERGY(eV):   10.050731    
@ STATE NO:   14 *TRANSITION MOMENT:  3.08292818E-16 *ENERGY(eV):   10.733175    
@ STATE NO:   15 *TRANSITION MOMENT:  1.04045218E-14 *ENERGY(eV):   11.170228    


 **************************************************************************************
 *** @ Excit. operator sym 1 & ref. state sym 1 => excited state symmetry 1  ( A  ) ***
 **************************************************************************************



 @ Excited state no:    1 in symmetry 1  ( A  ) - singlet excitation
 -------------------------------------------------------------------

@ Excitation energy : -3.29772521E-02 au
@                     -0.89735668     eV;  -7237.6702     cm-1;  -86.581762     kJ / mol

@ Total energy :       -38.368031     au

@ Operator label: XDIPLEN ; Transition moment : -5.78053840E-14 au
@ Oscillator strength (LENGTH)   : -7.34614990E-29  (X-polarization)

@ Operator label: YDIPLEN ; Transition moment :  7.52182053E-14 au
@ Oscillator strength (LENGTH)   : -1.24385323E-28  (Y-polarization)

@ Operator label: ZDIPLEN ; Transition moment : -0.47961512     au
@ Oscillator strength (LENGTH)   : -5.05718603E-03  (Z-polarization)

 Eigenvector for state no.  1

      Index(conf)                         Z operator          Y operator
      ----------                      --------------      --------------
           1                           -0.8793674968        0.0000000000
          25                            0.2382419303        0.0000000000
          29                            0.3393484513        0.0000000000
          31                           -0.2143954162        0.0000000000

      192 elements with absolute value ≤ 1.00D-01 are not printed.

 Printout of coefficients in interval  3.1623E-01 to  1.0000E+00
 ===============================================================

  Coefficient of CSF no.         1 is     -0.87936750   -8.79367497E-01
  Orbital          1   2   3   4   5
  Spin coupling    2   2   2   2   2

  Coefficient of CSF no.        29 is      0.33934845    3.39348451E-01
  Orbital          1   2   4   5   3   7
  Spin coupling    2   2   2   2   1  -1

 Printout of coefficients in interval  1.0000E-01 to  3.1623E-01
 ===============================================================

  Coefficient of CSF no.        25 is      0.23824193    2.38241930E-01
  Orbital          1   2   3   5   4   6
  Spin coupling    2   2   2   2   1  -1

  Coefficient of CSF no.        31 is     -0.21439542   -2.14395416E-01
  Orbital          1   3   4   5   2   6
  Spin coupling    2   2   2   2   1  -1

 Printout of coefficients in interval  1.0000E-01 to  1.0000E-01
 ===============================================================
   ( no coefficients )

 Norm of printed CI vector ..      0.99116918

 Magnitude of CI coefficients
 ============================
 ( Ranges are relative to norm of vector :  1.00E+00 )

  10- 1 to 10- 0         4    0.99116918E+00      0.9911691778
  10- 2 to 10- 1        11    0.83552822E-02      0.9995244599
  10- 3 to 10- 2        17    0.47226082E-03      0.9999967208
  10- 4 to 10- 3        16    0.32473083E-05      0.9999999681
  10- 5 to 10- 4        19    0.31742252E-07      0.9999999998
  10- 6 to 10- 5         3    0.18533753E-09      1.0000000000
  Number of coefficients less than 10^-11 times norm is          126


 @ Excited state no:    2 in symmetry 1  ( A  ) - singlet excitation
 -------------------------------------------------------------------

@ Excitation energy :  5.73401031E-02 au
@                       1.5603036     eV;   12584.698     cm-1;   150.54642     kJ / mol

@ Total energy :       -38.277713     au

@ Operator label: XDIPLEN ; Transition moment : -6.88921449E-14 au
@ Oscillator strength (LENGTH)   :  1.81428965E-28  (X-polarization)

@ Operator label: YDIPLEN ; Transition moment :  6.89201683E-14 au
@ Oscillator strength (LENGTH)   :  1.81576596E-28  (Y-polarization)

@ Operator label: ZDIPLEN ; Transition moment :  0.37272648     au
@ Oscillator strength (LENGTH)   :  5.31065035E-03  (Z-polarization)
@ Total oscillator strength (LENGTH)   :  5.31065035E-03

 Eigenvector for state no.  2

      Index(conf)                         Z operator          Y operator
      ----------                      --------------      --------------
           1                           -0.2091441854        0.0000000000
          25                           -0.9423072410        0.0000000000
          29                            0.1031021081        0.0000000000
         135                            0.1837547031        0.0000000000

      192 elements with absolute value ≤ 1.00D-01 are not printed.

 Printout of coefficients in interval  3.1623E-01 to  1.0000E+00
 ===============================================================

  Coefficient of CSF no.        25 is     -0.94230724   -9.42307241E-01
  Orbital          1   2   3   5   4   6
  Spin coupling    2   2   2   2   1  -1

 Printout of coefficients in interval  1.0000E-01 to  3.1623E-01
 ===============================================================

  Coefficient of CSF no.         1 is     -0.20914419   -2.09144185E-01
  Orbital          1   2   3   4   5
  Spin coupling    2   2   2   2   2

  Coefficient of CSF no.        29 is      0.10310211    1.03102108E-01
  Orbital          1   2   4   5   3   7
  Spin coupling    2   2   2   2   1  -1

  Coefficient of CSF no.       135 is      0.18375470    1.83754703E-01
  Orbital          1   2   5   3   4   6   7
  Spin coupling    2   2   2   1   1  -1  -1

 Norm of printed CI vector ..      0.97608006

 Magnitude of CI coefficients
 ============================
 ( Ranges are relative to norm of vector :  1.00E+00 )

  10- 1 to 10- 0         4    0.97608006E+00      0.9760800624
[...]
@ Oscillator strength (LENGTH)   :  3.50178359E-31  (X-polarization)

@ Operator label: YDIPLEN ; Transition moment : -8.04090298E-17 au
@ Oscillator strength (LENGTH)   :  1.11372118E-31  (Y-polarization)

@ Operator label: ZDIPLEN ; Transition moment :  4.19792255E-06 au
@ Oscillator strength (LENGTH)   :  3.03553804E-10  (Z-polarization)
@ Total oscillator strength (LENGTH)   :  3.03553804E-10

 Eigenvector for state no.189

      Index(conf)                         Z operator          Y operator
      ----------                      --------------      --------------
          18                           -0.9009096877        0.0000000000
          87                            0.1530106934        0.0000000000
         123                           -0.3881990313        0.0000000000

      193 elements with absolute value ≤ 1.00D-01 are not printed.

 Printout of coefficients in interval  3.1623E-01 to  1.0000E+00
 ===============================================================

  Coefficient of CSF no.        18 is     -0.90090969   -9.00909688E-01
  Orbital          2   3   5   6   7
  Spin coupling    2   2   2   2   2

  Coefficient of CSF no.       123 is     -0.38819903   -3.88199031E-01
  Orbital          3   5   6   7   2   4
  Spin coupling    2   2   2   2   1  -1

 Printout of coefficients in interval  1.0000E-01 to  3.1623E-01
 ===============================================================

  Coefficient of CSF no.        87 is      0.15301069    1.53010693E-01
  Orbital          2   3   5   7   4   6
  Spin coupling    2   2   2   2   1  -1

 Printout of coefficients in interval  1.0000E-01 to  1.0000E-01
 ===============================================================
   ( no coefficients )

 Norm of printed CI vector ..      0.98574903

 Magnitude of CI coefficients
 ============================
 ( Ranges are relative to norm of vector :  1.00E+00 )

  10- 1 to 10- 0         3    0.98574903E+00      0.9857490256
  10- 2 to 10- 1         7    0.14051400E-01      0.9998004254
  10- 3 to 10- 2        12    0.19675307E-03      0.9999971785
  10- 4 to 10- 3        18    0.27611281E-05      0.9999999396
  10- 5 to 10- 4        22    0.60150629E-07      0.9999999998
  10- 6 to 10- 5         7    0.20357025E-09      1.0000000000
  10- 7 to 10- 6         1    0.50024112E-12      1.0000000000
  Number of coefficients less than 10^-11 times norm is          126


 @ Excited state no:  190 in symmetry 1  ( A  ) - singlet excitation
 -------------------------------------------------------------------

@ Excitation energy :   25.941840     au
@                       705.91336     eV;   5693575.6     cm-1;   68110.289     kJ / mol

@ Total energy :       -12.393214     au

@ Operator label: XDIPLEN ; Transition moment : -7.13091366E-17 au
@ Oscillator strength (LENGTH)   :  8.79427143E-32  (X-polarization)

@ Operator label: YDIPLEN ; Transition moment :  1.13228024E-16 au
@ Oscillator strength (LENGTH)   :  2.21726380E-31  (Y-polarization)

@ Operator label: ZDIPLEN ; Transition moment :  3.31167427E-16 au
@ Oscillator strength (LENGTH)   :  1.89672661E-30  (Z-polarization)
@ Total oscillator strength (LENGTH)   :  2.20639570E-30

 Eigenvector for state no.190

      Index(conf)                         Z operator          Y operator
      ----------                      --------------      --------------
          57                           -0.2428185246        0.0000000000
         120                           -0.9546032931        0.0000000000
         126                            0.1458162501        0.0000000000

      193 elements with absolute value ≤ 1.00D-01 are not printed.

 Printout of coefficients in interval  3.1623E-01 to  1.0000E+00
 ===============================================================

  Coefficient of CSF no.       120 is     -0.95460329   -9.54603293E-01
  Orbital          2   5   6   7   3   4
  Spin coupling    2   2   2   2   1  -1

 Printout of coefficients in interval  1.0000E-01 to  3.1623E-01
 ===============================================================

  Coefficient of CSF no.        57 is     -0.24281852   -2.42818525E-01
  Orbital          2   3   5   6   4   7
  Spin coupling    2   2   2   2   1  -1

  Coefficient of CSF no.       126 is      0.14581625    1.45816250E-01
  Orbital          4   5   6   7   2   3
  Spin coupling    2   2   2   2   1  -1

 Norm of printed CI vector ..      0.99149066

 Magnitude of CI coefficients
 ============================
 ( Ranges are relative to norm of vector :  1.00E+00 )

  10- 1 to 10- 0         3    0.99149066E+00      0.9914906618
  10- 2 to 10- 1         5    0.83057474E-02      0.9997964092
  10- 3 to 10- 2        12    0.19963221E-03      0.9999960414
  10- 4 to 10- 3        18    0.39065829E-05      0.9999999480
  10- 5 to 10- 4        14    0.51799440E-07      0.9999999998
  10- 6 to 10- 5         4    0.17996151E-09      1.0000000000
  Number of coefficients less than 10^-11 times norm is          140


 @ Excited state no:  191 in symmetry 1  ( A  ) - singlet excitation
 -------------------------------------------------------------------

@ Excitation energy :   26.074909     au
@                       709.53436     eV;   5722780.9     cm-1;   68459.662     kJ / mol

@ Total energy :       -12.260145     au

@ Operator label: XDIPLEN ; Transition moment : -2.16466607E-16 au
@ Oscillator strength (LENGTH)   :  8.14541761E-31  (X-polarization)

@ Operator label: YDIPLEN ; Transition moment :  7.91246266E-17 au
@ Oscillator strength (LENGTH)   :  1.08831567E-31  (Y-polarization)

@ Operator label: ZDIPLEN ; Transition moment :  2.40883603E-05 au
@ Oscillator strength (LENGTH)   :  1.00866282E-08  (Z-polarization)
@ Total oscillator strength (LENGTH)   :  1.00866282E-08

 Eigenvector for state no.191

      Index(conf)                         Z operator          Y operator
      ----------                      --------------      --------------
          18                            0.1078185365        0.0000000000
          20                            0.9261319325        0.0000000000
          21                           -0.1791669810        0.0000000000
          63                           -0.2979124999        0.0000000000

      192 elements with absolute value ≤ 1.00D-01 are not printed.

 Printout of coefficients in interval  3.1623E-01 to  1.0000E+00
 ===============================================================

  Coefficient of CSF no.        20 is      0.92613193    9.26131932E-01
  Orbital          2   4   5   6   7
  Spin coupling    2   2   2   2   2

 Printout of coefficients in interval  1.0000E-01 to  3.1623E-01
 ===============================================================

  Coefficient of CSF no.        18 is      0.10781854    1.07818537E-01
  Orbital          2   3   5   6   7
  Spin coupling    2   2   2   2   2

  Coefficient of CSF no.        21 is     -0.17916698   -1.79166981E-01
  Orbital          3   4   5   6   7
  Spin coupling    2   2   2   2   2

  Coefficient of CSF no.        63 is     -0.29791250   -2.97912500E-01
  Orbital          2   4   5   6   3   7
  Spin coupling    2   2   2   2   1  -1

 Norm of printed CI vector ..      0.99019786

 Magnitude of CI coefficients
 ============================
 ( Ranges are relative to norm of vector :  1.00E+00 )

  10- 1 to 10- 0         4    0.99019786E+00      0.9901978579
  10- 2 to 10- 1         8    0.95992712E-02      0.9997971290
  10- 3 to 10- 2        11    0.19713760E-03      0.9999942666
  10- 4 to 10- 3        23    0.56888263E-05      0.9999999555
  10- 5 to 10- 4        20    0.44503783E-07      1.0000000000
  10- 6 to 10- 5         4    0.44452639E-10      1.0000000000
  Number of coefficients less than 10^-11 times norm is          126


 @ Excited state no:  192 in symmetry 1  ( A  ) - singlet excitation
 -------------------------------------------------------------------

@ Excitation energy :   26.172841     au
@                       712.19922     eV;   5744274.5     cm-1;   68716.782     kJ / mol

@ Total energy :       -12.162213     au

@ Operator label: XDIPLEN ; Transition moment : -7.18742526E-05 au
@ Oscillator strength (LENGTH)   :  9.01376610E-08  (X-polarization)

@ Operator label: YDIPLEN ; Transition moment :  2.30068428E-16 au
@ Oscillator strength (LENGTH)   :  9.23578153E-31  (Y-polarization)

@ Operator label: ZDIPLEN ; Transition moment :  6.03344763E-17 au
@ Oscillator strength (LENGTH)   :  6.35171051E-32  (Z-polarization)
@ Total oscillator strength (LENGTH)   :  9.01376610E-08

 Eigenvector for state no.192

      Index(conf)                         Z operator          Y operator
      ----------                      --------------      --------------
          78                           -0.1438214684        0.0000000000
         105                            0.2746659286        0.0000000000
         114                            0.9503292831        0.0000000000

      193 elements with absolute value ≤ 1.00D-01 are not printed.

 Printout of coefficients in interval  3.1623E-01 to  1.0000E+00
 ===============================================================

  Coefficient of CSF no.       114 is      0.95032928    9.50329283E-01
  Orbital          3   4   6   7   2   5
  Spin coupling    2   2   2   2   1  -1

 Printout of coefficients in interval  1.0000E-01 to  3.1623E-01
 ===============================================================

  Coefficient of CSF no.        78 is     -0.14382147   -1.43821468E-01
  Orbital          2   3   4   7   5   6
  Spin coupling    2   2   2   2   1  -1

  Coefficient of CSF no.       105 is      0.27466593    2.74665929E-01
  Orbital          2   3   6   7   4   5
  Spin coupling    2   2   2   2   1  -1

 Norm of printed CI vector ..      0.99925173

 Magnitude of CI coefficients
 ============================
 ( Ranges are relative to norm of vector :  1.00E+00 )

  10- 1 to 10- 0         3    0.99925173E+00      0.9992517334
  10- 2 to 10- 1         3    0.71689407E-03      0.9999686275
  10- 3 to 10- 2         6    0.29377207E-04      0.9999980047
  10- 4 to 10- 3        13    0.19532544E-05      0.9999999579
  10- 5 to 10- 4        11    0.42074251E-07      1.0000000000
  Number of coefficients less than 10^-11 times norm is          160


 @ Excited state no:  193 in symmetry 1  ( A  ) - singlet excitation
 -------------------------------------------------------------------

@ Excitation energy :   26.485591     au
@                       720.70960     eV;   5812915.3     cm-1;   69537.909     kJ / mol

@ Total energy :       -11.849462     au

@ Operator label: XDIPLEN ; Transition moment : -3.44533145E-17 au
@ Oscillator strength (LENGTH)   :  2.09594764E-32  (X-polarization)

@ Operator label: YDIPLEN ; Transition moment :  6.92168900E-16 au
@ Oscillator strength (LENGTH)   :  8.45945874E-30  (Y-polarization)

@ Operator label: ZDIPLEN ; Transition moment : -4.04519223E-06 au
@ Oscillator strength (LENGTH)   :  2.88932730E-10  (Z-polarization)
@ Total oscillator strength (LENGTH)   :  2.88932730E-10

 Eigenvector for state no.193

      Index(conf)                         Z operator          Y operator
      ----------                      --------------      --------------
          18                            0.3873842938        0.0000000000
          21                           -0.2178545773        0.0000000000
          87                            0.1118530734        0.0000000000
          96                           -0.1089838232        0.0000000000
         123                           -0.8773643516        0.0000000000

      191 elements with absolute value ≤ 1.00D-01 are not printed.

 Printout of coefficients in interval  3.1623E-01 to  1.0000E+00
 ===============================================================

  Coefficient of CSF no.        18 is      0.38738429    3.87384294E-01
  Orbital          2   3   5   6   7
  Spin coupling    2   2   2   2   2

  Coefficient of CSF no.       123 is     -0.87736435   -8.77364352E-01
  Orbital          3   5   6   7   2   4
  Spin coupling    2   2   2   2   1  -1

 Printout of coefficients in interval  1.0000E-01 to  3.1623E-01
 ===============================================================

  Coefficient of CSF no.        21 is     -0.21785458   -2.17854577E-01
  Orbital          3   4   5   6   7
  Spin coupling    2   2   2   2   2

  Coefficient of CSF no.        87 is      0.11185307    1.11853073E-01
  Orbital          2   3   5   7   4   6
  Spin coupling    2   2   2   2   1  -1

  Coefficient of CSF no.        96 is     -0.10898382   -1.08983823E-01
  Orbital          3   4   5   7   2   6
  Spin coupling    2   2   2   2   1  -1

 Norm of printed CI vector ..      0.99168400

 Magnitude of CI coefficients
 ============================
 ( Ranges are relative to norm of vector :  1.00E+00 )

  10- 1 to 10- 0         5    0.99168400E+00      0.9916839971
  10- 2 to 10- 1         5    0.82273170E-02      0.9999113141
  10- 3 to 10- 2         9    0.86274644E-04      0.9999975887
  10- 4 to 10- 3        24    0.23682986E-05      0.9999999570
  10- 5 to 10- 4        20    0.42690611E-07      0.9999999997
  10- 6 to 10- 5         6    0.26109980E-09      1.0000000000
  10- 8 to 10- 7         1    0.24565598E-15      1.0000000000
  Number of coefficients less than 10^-11 times norm is          126


 @ Excited state no:  194 in symmetry 1  ( A  ) - singlet excitation
 -------------------------------------------------------------------

@ Excitation energy :   26.672509     au
@                       725.79590     eV;   5853939.1     cm-1;   70028.663     kJ / mol

@ Total energy :       -11.662544     au

@ Operator label: XDIPLEN ; Transition moment :  2.50561348E-16 au
@ Oscillator strength (LENGTH)   :  1.11635102E-30  (X-polarization)

@ Operator label: YDIPLEN ; Transition moment :  1.09943099E-16 au
@ Oscillator strength (LENGTH)   :  2.14935704E-31  (Y-polarization)

@ Operator label: ZDIPLEN ; Transition moment :  3.41544066E-16 au
@ Oscillator strength (LENGTH)   :  2.07427391E-30  (Z-polarization)
@ Total oscillator strength (LENGTH)   :  3.40556064E-30

 Eigenvector for state no.194

      Index(conf)                         Z operator          Y operator
      ----------                      --------------      --------------
          66                            0.2192715939        0.0000000000
          93                           -0.1447406982        0.0000000000
         120                            0.1356115788        0.0000000000
         126                            0.9529468471        0.0000000000

      192 elements with absolute value ≤ 1.00D-01 are not printed.

 Printout of coefficients in interval  3.1623E-01 to  1.0000E+00
 ===============================================================

  Coefficient of CSF no.       126 is      0.95294685    9.52946847E-01
  Orbital          4   5   6   7   2   3
  Spin coupling    2   2   2   2   1  -1

 Printout of coefficients in interval  1.0000E-01 to  3.1623E-01
 ===============================================================

  Coefficient of CSF no.        66 is      0.21927159    2.19271594E-01
  Orbital          3   4   5   6   2   7
  Spin coupling    2   2   2   2   1  -1

  Coefficient of CSF no.        93 is     -0.14474070   -1.44740698E-01
  Orbital          2   4   5   7   3   6
  Spin coupling    2   2   2   2   1  -1

  Coefficient of CSF no.       120 is      0.13561158    1.35611579E-01
  Orbital          2   5   6   7   3   4
  Spin coupling    2   2   2   2   1  -1

 Norm of printed CI vector ..      0.99552810

 Magnitude of CI coefficients
 ============================
 ( Ranges are relative to norm of vector :  1.00E+00 )

  10- 1 to 10- 0         4    0.99552810E+00      0.9955280953
  10- 2 to 10- 1         5    0.44063042E-02      0.9999343995
  10- 3 to 10- 2         7    0.62411630E-04      0.9999968111
  10- 4 to 10- 3        21    0.31570508E-05      0.9999999682
  10- 5 to 10- 4        18    0.31824078E-07      1.0000000000
  10- 6 to 10- 5         1    0.22484545E-11      1.0000000000
  Number of coefficients less than 10^-11 times norm is          140


 @ Excited state no:  195 in symmetry 1  ( A  ) - singlet excitation
 -------------------------------------------------------------------

@ Excitation energy :   27.004079     au
@                       734.81836     eV;   5926710.1     cm-1;   70899.198     kJ / mol

@ Total energy :       -11.330975     au

@ Operator label: XDIPLEN ; Transition moment : -1.84006048E-16 au
@ Oscillator strength (LENGTH)   :  6.09540128E-31  (X-polarization)

@ Operator label: YDIPLEN ; Transition moment : -3.94742336E-16 au
@ Oscillator strength (LENGTH)   :  2.80521091E-30  (Y-polarization)

@ Operator label: ZDIPLEN ; Transition moment :  9.44182687E-09 au
@ Oscillator strength (LENGTH)   :  1.60490811E-15  (Z-polarization)
@ Total oscillator strength (LENGTH)   :  1.60490811E-15

 Eigenvector for state no.195

      Index(conf)                         Z operator          Y operator
      ----------                      --------------      --------------
          18                           -0.1203074184        0.0000000000
          20                           -0.1655346380        0.0000000000
          21                           -0.9267915737        0.0000000000
          96                           -0.2133814816        0.0000000000
         123                            0.2154479219        0.0000000000

      191 elements with absolute value ≤ 1.00D-01 are not printed.

 Printout of coefficients in interval  3.1623E-01 to  1.0000E+00
 ===============================================================

  Coefficient of CSF no.        21 is     -0.92679157   -9.26791574E-01
  Orbital          3   4   5   6   7
  Spin coupling    2   2   2   2   2

 Printout of coefficients in interval  1.0000E-01 to  3.1623E-01
 ===============================================================

  Coefficient of CSF no.        18 is     -0.12030742   -1.20307418E-01
  Orbital          2   3   5   6   7
  Spin coupling    2   2   2   2   2

  Coefficient of CSF no.        20 is     -0.16553464   -1.65534638E-01
  Orbital          2   4   5   6   7
  Spin coupling    2   2   2   2   2

  Coefficient of CSF no.        96 is     -0.21338148   -2.13381482E-01
  Orbital          3   4   5   7   2   6
  Spin coupling    2   2   2   2   1  -1

  Coefficient of CSF no.       123 is      0.21544792    2.15447922E-01
  Orbital          3   5   6   7   2   4
  Spin coupling    2   2   2   2   1  -1

 Norm of printed CI vector ..      0.99276768

 Magnitude of CI coefficients
 ============================
 ( Ranges are relative to norm of vector :  1.00E+00 )

  10- 1 to 10- 0         5    0.99276768E+00      0.9927676761
  10- 2 to 10- 1         5    0.70288517E-02      0.9997965278
  10- 3 to 10- 2        10    0.19656987E-03      0.9999930977
  10- 4 to 10- 3        27    0.68432024E-05      0.9999999409
  10- 5 to 10- 4        21    0.58972005E-07      0.9999999999
  10- 6 to 10- 5         2    0.14330643E-09      1.0000000000
  Number of coefficients less than 10^-11 times norm is          126


 Time used in polarization propagator calculation is      0.50 CPU seconds for symmetry 1

  Total CPU  time used in RESPONSE:   0.54 seconds
  Total wall time used in RESPONSE:   0.89 seconds


                   .-------------------------------------------.
                   | End of Dynamic Property Section (RESPONS) |
                   `-------------------------------------------'

  Total CPU  time used in DALTON:   0.74 seconds
  Total wall time used in DALTON:   2.19 seconds

 NOTE:    1 warnings have been issued.
 Check output, result, and error files for "WARNING".

 
     Date and time (Linux)  : Tue Jul  7 10:35:14 2026
     Host name              : n-62-31-24                              
