

     ************************************************************************
     *************** Dalton - An Electronic Structure Program ***************
     ************************************************************************

    This is output from DALTON release Dalton2024.0-dev (2024)
         ( Web site: http://daltonprogram.org )

   ----------------------------------------------------------------------------

    NOTE:
     
    Dalton is an experimental code for the evaluation of molecular
    properties using (MC)SCF, DFT, CI, and CC wave functions.
    The authors accept no responsibility for the performance of
    the code or for the correctness of the results.
     
    The code (in whole or part) is provided under a licence and
    is not to be reproduced for further distribution without
    the written permission of the authors or their representatives.
     
    See the home page "http://daltonprogram.org" for further information.
     
    If results obtained with this code are published,
    the appropriate citations would be both of:
     
       K. Aidas, C. Angeli, K. L. Bak, V. Bakken,
       R. Bast, L. Boman, O. Christiansen, R. Cimiraglia,
       S. Coriani, P. Dahle, E. K. Dalskov, U. Ekstroem,
       T. Enevoldsen, J. J. Eriksen, P. Ettenhuber, B. Fernandez,
       L. Ferrighi, H. Fliegl, L. Frediani, K. Hald, A. Halkier,
       C. Haettig, H. Heiberg, T. Helgaker, A. C. Hennum,
       H. Hettema, E. Hjertenaes, S. Hoest, I.-M. Hoeyvik,
       M. F. Iozzi, B. Jansik, H. J. Aa. Jensen, D. Jonsson,
       P. Joergensen, J. Kauczor, S. Kirpekar,
       T. Kjaergaard, W. Klopper, S. Knecht, R. Kobayashi, H. Koch,
       J. Kongsted, A. Krapp, K. Kristensen, A. Ligabue,
       O. B. Lutnaes, J. I. Melo, K. V. Mikkelsen, R. H. Myhre,
       C. Neiss, C. B. Nielsen, P. Norman, J. Olsen,
       J. M. H. Olsen, A. Osted, M. J. Packer, F. Pawlowski,
       T. B. Pedersen, P. F. Provasi, S. Reine, Z. Rinkevicius,
       T. A. Ruden, K. Ruud, V. Rybkin, P. Salek, C. C. M. Samson,
       A. Sanchez de Meras, T. Saue, S. P. A. Sauer,
       B. Schimmelpfennig, K. Sneskov, A. H. Steindal,
       K. O. Sylvester-Hvid, P. R. Taylor, A. M. Teale,
       E. I. Tellgren, D. P. Tew, A. J. Thorvaldsen, L. Thoegersen,
       O. Vahtras, M. A. Watson, D. J. D. Wilson, M. Ziolkowski
       and H. Agren,
       "The Dalton quantum chemistry program system",
       WIREs Comput. Mol. Sci. 2014, 4:269-284 (doi: 10.1002/wcms.1172)
     
    and
     
       Dalton, a molecular electronic structure program,
       Release Dalton2024.0-dev (2024), see http://daltonprogram.org
   ----------------------------------------------------------------------------

    Authors in alphabetical order (Major contribution(s) in parenthesis):

  Kestutis Aidas,              Vilnius University,        Lithuania   (QM/MM)
  Celestino Angeli,            University of Ferrara,     Italy       (NEVPT2)
  Juan J. Aucar,               Northeast National UniversiArgentina   (LRESC, Relativistic Effects on EFG)
  Keld L. Bak,                 UNI-C,                     Denmark     (AOSOPPA, non-adiabatic coupling, magnetic properties)
  Vebjoern Bakken,             University of Oslo,        Norway      (DALTON; geometry optimizer, symmetry detection)
  Radovan Bast,                UiT The Arctic U. of NorwayNorway      (DALTON installation and execution frameworks)
  Pablo Baudin,                University of Valencia,    Spain       (Cholesky excitation energies)
  Linus Boman,                 NTNU,                      Norway      (Cholesky decomposition and subsystems)
  Bruno N. Cabral Tenorio,     Technical Univ. of Denmark,Denmark     (Lanczos-based CC methods)
  Ove Christiansen,            Aarhus University,         Denmark     (CC module)
  Renzo Cimiraglia,            University of Ferrara,     Italy       (NEVPT2)
  Sonia Coriani,               Technical Univ. of Denmark,Denmark     (CC and RESPONS modules)
  Janusz Cukras,               University of Warsaw,      Poland      (MChD in RESPONS)
  Paal Dahle,                  University of Oslo,        Norway      (Parallelization)
  Erik K. Dalskov,             UNI-C,                     Denmark     (SOPPA)
  Thomas Enevoldsen,           Univ. of Southern Denmark, Denmark     (SOPPA)
  Janus J. Eriksen,            Aarhus University,         Denmark     (Polarizable embedding, TDA)
  Rasmus Faber,                Technical Univ. of Denmark,Denmark     (Vib.avg. NMR w. SOPPA, parallel AO-SOPPA, CVS-CC and EOMCC)
  Tobias Fahleson,             KTH Stockholm,             Sweden      (Damped cubic response)
  Berta Fernandez,             U. of Santiago de CompostelSpain       (Doublet spin, ESR in RESPONS)
  Lara Ferrighi,               Aarhus University,         Denmark     (PCM Cubic response)
  Heike Fliegl,                University of Oslo,        Norway      (CCSD(R12))
  Luca Frediani,               UiT The Arctic U. of NorwayNorway      (PCM)
  Emmanuel Fromager,           Univ. Strasbourg,          France      (MC-srDFT)
  Bin Gao,                     UiT The Arctic U. of NorwayNorway      (Gen1Int library)
  Andre S. P. Gomes,           CNRS/Universite de Lille,  France      (Frozen density embedding)
  Christof Haettig,            Ruhr-University Bochum,    Germany     (CC module)
  Kasper Hald,                 Aarhus University,         Denmark     (CC module)
  Asger Halkier,               Aarhus University,         Denmark     (CC module)
  Frederik Beyer Hansen,       University of Copenhagen,  Denmark     (Parallel AO-SOPPA)
  Erik D. Hedegaard,           Univ. of Southern Denmark, Denmark     (Polarizable embedding, QM/MM, and MC-srDFT)
  Hanne Heiberg,               University of Oslo,        Norway      (Geometry analysis, selected one-electron integrals)
  Trygve Helgaker,             University of Oslo,        Norway      (DALTON; ABACUS, ERI, DFT modules, London, and much more)
  Alf Christian Hennum,        University of Oslo,        Norway      (Parity violation)
  Hinne Hettema,               University of Auckland,    New Zealand (Quadratic response in RESPONS; SIRIUS supersymmetry)
  Andreas E. Hillers-Bendtsen, University of Copenhagen,  Denmark     (MP3)
  Eirik Hjertenaes,            NTNU,                      Norway      (Cholesky decomposition)
  Nicolai Machholdt Hoeyer,    Aarhus University,         Denmark     (MP3)
  Pi A. B. Haase,              University of Copenhagen,  Denmark     (Triplet AO-SOPPA)
  Maria Francesca Iozzi,       University of Oslo,        Norway      (RPA)
  Christoph Jacob,             TU Braunschweig            Germany     (Frozen density embedding)
  Brano Jansik,                Technical Univ. of Ostrava Czech Rep.  (DFT cubic response)
  Hans Joergen Aa. Jensen,     Univ. of Southern Denmark, Denmark     (DALTON; SIRIUS, RESPONS, ABACUS, MC-srDFT, and much more)
  Dan Jonsson,                 UiT The Arctic U. of NorwayNorway      (Cubic response in RESPONS module)
  Poul Joergensen,             Aarhus University,         Denmark     (RESPONS, ABACUS, and CC modules)
  Maciej Kaminski,             University of Warsaw,      Poland      (CPPh in RESPONS)
  Joanna Kauczor,              Linkoeping University,     Sweden      (Complex polarization propagator (CPP) module)
  Sheela Kirpekar,             Univ. of Southern Denmark, Denmark     (Mass-velocity & Darwin integrals)
  Frederik Oersted Kjeldal,    Technical Univ. of Denmark,Denmark     (MP3)
  Erik Kjellgren,              Univ. of Southern Denmark, Denmark     (MC-srDFT)
  Wim Klopper,                 KIT Karlsruhe,             Germany     (R12 code in CC, SIRIUS, and ABACUS modules)
  Stefan Knecht,               ETH Zurich,                Switzerland (Parallel CI and MCSCF, MC-srDFT)
  Rika Kobayashi,              Australian National Univ., Australia   (DIIS in CC, London in MCSCF)
  Henrik Koch,                 NTNU,                      Norway      (CC module, Cholesky decomposition)
  Jacob Kongsted,              Univ. of Southern Denmark, Denmark     (Polarizable embedding, polarizable density embedding, QM/MM)
  Andrea Ligabue,              University of Modena,      Italy       (CTOCD, AOSOPPA)
  Nanna H. List,               Univ. of Southern Denmark, Denmark     (Polarizable embedding)
  Ola B. Lutnaes,              University of Oslo,        Norway      (DFT Hessian)
  Juan I. Melo,                University of Buenos Aires,Argentina   (LRESC, Relativistic Effects on NMR Shieldings)
  Kurt V. Mikkelsen,           University of Copenhagen,  Denmark     (MC-SCRF, QM/MM, and MP3)
  Rolf H. Myhre,               NTNU,                      Norway      (Subsystems and CC3)
  Christian Neiss,             Univ. Erlangen-Nuernberg,  Germany     (CCSD(R12))
  Christian B. Nielsen,        University of Copenhagen,  Denmark     (QM/MM)
  Patrick Norman,              KTH Stockholm,             Sweden      (Cubic response and complex frequency response in RESPONS)
  Jeppe Olsen,                 Aarhus University,         Denmark     (SIRIUS CI/density modules)
  Jogvan Magnus H. Olsen,      Aarhus University,         Denmark     (Polarizable embedding and polarizable density embedding)
  Anders Osted,                Copenhagen University,     Denmark     (QM/MM)
  Martin J. Packer,            University of Sheffield,   UK          (SOPPA)
  Filip Pawlowski,             Kazimierz Wielki UniversityPoland      (CC3)
  Morten N. Pedersen,          Univ. of Southern Denmark, Denmark     (Polarizable embedding)
  Thomas B. Pedersen,          University of Oslo,        Norway      (Cholesky decomposition)
  Patricio F. Provasi,         University of Northeastern,Argentina   (Analysis of coupling constants in localized orbitals)
  Peter Reinholdt,             Univ. of Southern Denmark, Denmark     (Polarizable embedding and polarizable density embedding)
  Zilvinas Rinkevicius,        KTH Stockholm,             Sweden      (open-shell DFT, ESR)
  Elias Rudberg,               KTH Stockholm,             Sweden      (DFT grid and basis info)
  Torgeir A. Ruden,            University of Oslo,        Norway      (Numerical derivatives in ABACUS)
  Kenneth Ruud,                UiT The Arctic U. of NorwayNorway      (DALTON; ABACUS magnetic properties and much more)
  Pawel Salek,                 KTH Stockholm,             Sweden      (DALTON; DFT code)
  Claire C. M. Samson,         University of Karlsruhe    Germany     (Boys localization, r12 integrals in ERI)
  Alfredo Sanchez de Meras,    University of Valencia,    Spain       (CC module, Cholesky decomposition)
  Trond Saue,                  Paul Sabatier University,  France      (direct Fock matrix construction)
  Stephan P. A. Sauer,         University of Copenhagen,  Denmark     (SOPPA(CCSD), SOPPA prop., AOSOPPA, vibrational g-factors)
  Bernd Schimmelpfennig,       Forschungszentrum KarlsruheGermany     (AMFI module)
  Anna K. Schnack-Petersen,    University of Copenhagen,  Denmark     (RPA(D) and HRPA(D) properties in AOSOPPA)
  Kristian Sneskov,            Aarhus University,         Denmark     (Polarizable embedding, QM/MM)
  Arnfinn H. Steindal,         UiT The Arctic U. of NorwayNorway      (parallel QM/MM, polarizable embedding)
  Casper Steinmann,            Aalborg University,        Denmark     (QFIT, polarizable embedding)
  K. O. Sylvester-Hvid,        University of Copenhagen,  Denmark     (MC-SCRF)
  Peter R. Taylor,             VLSCI/Univ. of Melbourne,  Australia   (Symmetry handling ABACUS, integral transformation)
  Andrew M. Teale,             University of Nottingham,  England     (DFT-AC, DFT-D)
  David P. Tew,                University of Bristol,     England     (CCSD(R12))
  Julien Toulouse,             Sorbonne Univ.,            France      (MC-srDFT)
  Olav Vahtras,                KTH Stockholm,             Sweden      (Triplet response, spin-orbit, ESR, TDDFT, open-shell DFT)
  Lucas Visscher,              Vrije Universiteit AmsterdaNetherlands (Frozen density embedding)
  David J. Wilson,             La Trobe University,       Australia   (DFT Hessian and DFT magnetizabilities)
  Luna Zamok,                  University of Copenhagen,  Denmark     (Block Lanczos RPA solver in SOPPA module)
  Hans Agren,                  KTH Stockholm,             Sweden      (SIRIUS module, RESPONS, MC-SCRF solvation)
 --------------------------------------------------------------------------------

     Date and time (Linux)  : Mon Jul  6 16:39:42 2026
     Host name              : n-62-11-68                              

 * Work memory size             :   512000000 =  3.815 gigabytes.

 * Directories for basis set searches:
   1) /work3/jochar/DaltonTests
   2) /zhome/d7/7/119775/My_Codes/Dalton_Release/dalton/build_omp_nov24/basis


Compilation information
-----------------------

 Who compiled             | soco
 Host                     | hpclogin1
 System                   | Linux-6.1.112-1.el9.elrepo.x86_64
 CMake generator          | Unix Makefiles
 Processor                | x86_64
 64-bit integers          | OFF
 MPI                      | OFF
 Fortran compiler         | /appl/intel/2023.2.0.49397/compiler/2023.2.0/linux
                          | /bin/intel64/ifort
 Fortran compiler version | ifort (IFORT) 2021.10.0 20230609
 C compiler               | /appl/intel/2023.2.0.49397/compiler/2023.2.0/linux
                          | /bin/intel64/icc
 C compiler version       | icc (ICC) 2021.10.0 20230609
 C++ compiler             | /appl/intel/2023.2.0.49397/compiler/2023.2.0/linux
                          | /bin/intel64/icpc
 C++ compiler version     | icpc (ICC) 2021.10.0 20230609
 Static linking           | OFF
 Last Git revision        | a531ac4fbf115ebda1c90140ce3fd6aa236a2033
 Git branch               | master
 Configuration time       | 2024-11-14 11:23:30.470039

 * Sequential calculation.


   Content of the .dal input file
 ----------------------------------

**DALTON INPUT
.RUN WAVE FUNCTIONS   !tipo di calcolo
.RUN RESPONSE
**INTEGRALS
.DIPLEN               !integrali dell'operatore dipolo elettrico
**WAVE FUNCTION
.HF
.CI
!*PRINT
!.PRINTL
!   0 11
*SCF INP              !parte da Hartree-Fock
.DOUBLY OCCUPIED
2
.THRESH               !soglia di convergenza
 1.0D-10
*CONFIGURATION INPUT
.SPIN MULTIPLICITY
1
.SYMMETRY
1
.INACTIVE ORBITALS !the inner electrons are kept frozen
0
.CAS SPACE
6
.ELECTRONS
4
**RESPONS
*LINEAR
.THCLR
1.0d-9
.DIPLEN
.SINGLE RESIDUE
.ROOTS
300
**END OF INPUT


   Content of the .mol file
 ----------------------------

BASIS
STO-3G
test VQE
dalton test
Atomtypes=2 Angstrom Nosymmetry
Charge=3.0 Atoms=1
Li    0.0000000000000000  0.0000000000000000  0.0
Charge=1.0 Atoms=1
H     1.5950000000000000  0.0000000000000000  0.0


       *******************************************************************
       *********** Output from DALTON general input processing ***********
       *******************************************************************

 --------------------------------------------------------------------------------
   Overall default print level:    0
   Print level for DALTON.STAT:    1

    HERMIT 1- and 2-electron integral sections will be executed
    "Old" integral transformation used (limited to max 255 basis functions)
    Wave function sections will be executed (SIRIUS module)
    Dynamic molecular response properties section will be executed (RESPONSE module)
 --------------------------------------------------------------------------------


   ****************************************************************************
   *************** Output of molecule and basis set information ***************
   ****************************************************************************


    The two title cards from your ".mol" input:
    --------------------------------------------------------------------------------
 1: test VQE
 2: dalton test
    --------------------------------------------------------------------------------

  Coordinates are entered in Angstrom and converted to atomic units.
          - Conversion factor : 1 bohr = 0.52917721 A

  Atomic type no.    1
  --------------------
  Nuclear charge:   3.00000
  Number of symmetry independent centers:    1
  Number of basis sets to read;    2
  Basis set file used for this atomic type with Z =   3 :
     "/zhome/d7/7/119775/My_Codes/Dalton_Release/dalton/build_omp_nov24/basis/STO-3G"

  Atomic type no.    2
  --------------------
  Nuclear charge:   1.00000
  Number of symmetry independent centers:    1
  Number of basis sets to read;    2
  Basis set file used for this atomic type with Z =   1 :
     "/zhome/d7/7/119775/My_Codes/Dalton_Release/dalton/build_omp_nov24/basis/STO-3G"


                         SYMGRP: Point group information
                         -------------------------------

@    Point group: C1 


                                 Isotopic Masses
                                 ---------------

                           Li          7.016005
                           H           1.007825

                       Total mass:     8.023830 amu
                       Natural abundance:  92.486 %

 Center-of-mass coordinates (a.u.):    0.378585    0.000000    0.000000
 Center-of-mass coordinates (Angs):    0.200338    0.000000    0.000000


  Atoms and basis sets
  --------------------

  Number of atom types :    2
  Total number of atoms:    2

  Basis set used is "STO-3G" from the basis set library.

  label    atoms   charge   prim   cont     basis
  ----------------------------------------------------------------------
  Li          1    3.0000    15     5      [6s3p|2s1p]                                        
  H           1    1.0000     3     1      [3s|1s]                                            
  ----------------------------------------------------------------------
  total:      2    4.0000    18     6
  ----------------------------------------------------------------------

  Threshold for neglecting AO integrals:  1.00D-12


  Cartesian Coordinates (a.u.)
  ----------------------------

  Total number of coordinates:    6
  Li      :     1  x   0.0000000000    2  y   0.0000000000    3  z   0.0000000000
  H       :     4  x   3.0141131694    5  y   0.0000000000    6  z   0.0000000000


   Interatomic separations (in Angstrom):
   --------------------------------------

            Li          H     
            ------      ------
 Li    :    0.000000
 H     :    1.595000    0.000000


  Max    interatomic separation is    1.5950 Angstrom (    3.0141 Bohr)
  between atoms    2 and    1, "H     " and "Li    ".

  Min HX interatomic separation is    1.5950 Angstrom (    3.0141 Bohr)


  Bond distances (Angstrom):
  --------------------------

                  atom 1     atom 2       distance
                  ------     ------       --------
  bond distance:  H          Li           1.595000




 Principal moments of inertia (u*A**2) and principal axes
 --------------------------------------------------------

   IA       0.000000          1.000000    0.000000    0.000000
   IB       2.241892          0.000000    1.000000    0.000000
   IC       2.241892          0.000000    0.000000    1.000000


 Rotational constants
 --------------------

@    The molecule is linear.

               B =       225425.23 MHz     (    7.519376 cm-1)


@  Nuclear repulsion energy :    0.995317637868 Hartree


                     .---------------------------------------.
                     | Starting in Integral Section (HERMIT) |
                     `---------------------------------------'



 ***************************************************************************************
 ****************** Output from **INTEGRALS input processing (HERMIT) ******************
 ***************************************************************************************



    *************************************************************************
    ****************** Output from HERMIT input processing ******************
    *************************************************************************


 Default print level:        1

 Calculation of one- and two-electron Hamiltonian integrals.

 The following one-electron property integrals are calculated as requested:
          - overlap integrals
          - dipole length integrals

 Center of mass  (bohr):      0.378584616687      0.000000000000      0.000000000000
 Operator center (bohr):      0.000000000000      0.000000000000      0.000000000000
 Gauge origin    (bohr):      0.000000000000      0.000000000000      0.000000000000
 Dipole origin   (bohr):      0.000000000000      0.000000000000      0.000000000000

Calculation of 2-electron integrals are postponed until they are needed.


     ************************************************************************
     ************************** Output from HERINT **************************
     ************************************************************************



                      Nuclear contribution to dipole moments
                      --------------------------------------

                 au               Debye          C m (/(10**-30)

      x      3.01411317         7.66111102        25.55471565
      y      0.00000000         0.00000000         0.00000000
      z      0.00000000         0.00000000         0.00000000


  Total CPU  time used in HERMIT:   0.01 seconds
  Total wall time used in HERMIT:   0.03 seconds


                        .----------------------------------.
                        | End of Integral Section (HERMIT) |
                        `----------------------------------'



                   .--------------------------------------------.
                   | Starting in Wave Function Section (SIRIUS) |
                   `--------------------------------------------'


     WARNING  Reference state is required for CI response and CI-NO
     WARNING  ".STATE" was not specified for "*CI INPUT",
     WARNING  the reference state is set to be state no.  1

 *** Output from Huckel module :

     Using EWMO model:          T
     Using EHT  model:          F
     Number of Huckel orbitals each symmetry:    6

 EWMO - Energy Weighted Maximum Overlap - is a Huckel type method,
        which normally is better than Extended Huckel Theory.
 Reference: Linderberg and Ohrn, Propagators in Quantum Chemistry (Wiley, 1973)

 Huckel EWMO eigenvalues for symmetry :  1
           -2.483509      -0.580536      -0.169654      -0.130000      -0.130000
           -0.070301

 **********************************************************************
 *SIRIUS* a direct, restricted step, second order MCSCF program       *
 **********************************************************************

 
     Date and time (Linux)  : Mon Jul  6 16:39:43 2026
     Host name              : n-62-11-68                              

 Title lines from ".mol" input file:
     test VQE
     dalton test

 Print level on unit LUPRI =   2 is   0
 Print level on unit LUW4  =   2 is   5

@    Configuration interaction calculation.

@    CI response calculation.

@    CI type: user specified active spaces.
@              Type: complete active space calculation (CAS).

@    This is a combination run starting with
@              a restricted, closed shell Hartree-Fock calculation


 Initial molecular orbitals are obtained according to
 ".MOSTART EWMO  " input option

     Wave function specification
     ============================
@    Wave function type        --- CI ---
@    Number of closed shell electrons           0
@    Number of electrons in active shells       4
@    Total charge of the molecule               0

@    Spin multiplicity and 2 M_S                1         0
@    Total number of symmetries                 1 (point group: C1 )
@    Reference state symmetry                   1 (irrep name : A  )

     Orbital specifications
     ======================
@    Abelian symmetry species          All |    1
@                                          |  A  
                                       --- |  ---
@    Inactive orbitals                   0 |    0
@    Active orbitals                     6 |    6
@    Secondary orbitals                  0 |    0
@    Total number of orbitals            6 |    6
@    Number of basis functions           6 |    6

      -- Initial occupation of symmetries is determined from user input.                      
      -- Initial occupation of symmetries is :
@    Occupied SCF orbitals               2 |    2

     Optimization information
     ========================
@    Number of configurations               105
@    Number of orbital rotations              0
     ------------------------------------------
@    Total number of variables              105

     Maximum number of CI iterations         25
     Threshold for CI convergence      1.00D-05
     Number of CI roots to converge           1

@    Reference state in CI response calculation :       1


 ***********************************************
 ***** DIIS acceleration of SCF iterations *****
 ***********************************************

 C1-DIIS algorithm; max error vectors =    7

 Iter      Total energy        Error norm    Delta(E)  DIIS dim.
 -----------------------------------------------------------------------------

Calculating AOSUPINT

---> (Re)generating AOTWOINT


     ************************************************************************
     ************************** Output from HERINT **************************
     ************************************************************************


 Threshold for neglecting two-electron integrals:  1.00D-12
 HERMIT - Number of two-electron integrals written:          83 ( 35.9% )
 HERMIT - Megabytes written:                              0.137

     (Precalculated AO two-electron integrals are transformed to P-supermatrix elements.
      Threshold for discarding integrals :  1.00D-12 )

@  1    -7.80826899839        5.56473D-01   -7.81D+00    1
      Virial theorem: -V/T =      1.948045
@    MULPOP   Li      0.47; H      -0.47; 
   1  Level shift: doubly occupied orbital energies shifted by -2.00D-01
 -----------------------------------------------------------------------------
@  2    -7.85831505789        1.50219D-01   -5.00D-02    2
      Virial theorem: -V/T =      1.979701
@    MULPOP   Li      0.11; H      -0.11; 
   2  Level shift: doubly occupied orbital energies shifted by -1.00D-01
 -----------------------------------------------------------------------------
@  3    -7.86197908306        1.64725D-02   -3.66D-03    3
      Virial theorem: -V/T =      1.987380
@    MULPOP   Li     -0.00; H       0.00; 
   3  Level shift: doubly occupied orbital energies shifted by -2.50D-02
 -----------------------------------------------------------------------------
@  4    -7.86202381387        4.58554D-04   -4.47D-05    4
      Virial theorem: -V/T =      1.988160
@    MULPOP   Li     -0.02; H       0.02; 
 -----------------------------------------------------------------------------
@  5    -7.86202385713        8.56694D-05   -4.33D-08    5
      Virial theorem: -V/T =      1.988170
@    MULPOP   Li     -0.02; H       0.02; 
 -----------------------------------------------------------------------------
@  6    -7.86202386168        2.84515D-05   -4.55D-09    6
      Virial theorem: -V/T =      1.988168
@    MULPOP   Li     -0.02; H       0.02; 
 -----------------------------------------------------------------------------
@  7    -7.86202386222        1.61999D-08   -5.40D-10    7
      Virial theorem: -V/T =      1.988167
@    MULPOP   Li     -0.02; H       0.02; 
 -----------------------------------------------------------------------------
@  8    -7.86202386222        1.87938D-08    0.00D+00    7
      Virial theorem: -V/T =      1.988167
@    MULPOP   Li     -0.02; H       0.02; 
 -----------------------------------------------------------------------------
@  9    -7.86202386222        1.69128D-13    1.78D-15    7

@ *** DIIS converged in   9 iterations !
@     Converged SCF energy, gradient:     -7.862023862217    1.69D-13
    - total time used in SIRFCK :              0.00 seconds

 --- Writing SIRIFC interface file

--------------------------------------------------------------------------------


     .--------------------------------------------------.
     | HF-SCF KT IPs [a.u. & eV] from Koopmans' theorem |
     `--------------------------------------------------'


     HF-SCF KT symmetry 1 ( A  ) in point group C1  -- 2 principal poles with pole strength 1

   ============  ============
       2.348646      0.285696
      63.909922      7.774190
   ============  ============

@ Summary of HF-SCF KT ionization potentials [eV]:

@ Symmetry 1 (A  ) :    63.910       7.774

  === End of HF-SCF KT output ===
--------------------------------------------------------------------------------


 CPU and wall time for SCF :       0.036       0.317


 ----- Output from SIRIUS CI module (CICTL) -----




 2-el. integral transformation level 0: Total CPU and WALL times (sec)       0.005       0.025

 (CIST1) 8 lowest diagonal elements:

 Element no. Config.no.    Active energy      Total energy

         1 :          1     -8.8573415001     -7.8620238622
         2 :         16     -8.7041234054     -7.7088057675
         3 :         17     -8.6546748188     -7.6593571809
         4 :         19     -8.6546748188     -7.6593571809
         5 :         22     -8.3527134354     -7.3573957975
         6 :         21     -8.2259793880     -7.2306617502
         7 :         18     -8.2259663394     -7.2306487015
         8 :         20     -8.2259663394     -7.2306487015

Lowest 1 elements are used as separate start CI vectors.


 Convergence threshold for CI optimization :     0.00001000


 CI root     eigenvalue        residual norm

    1       -7.8620238622        0.1413423906

 CI root     eigenvalue        residual norm

    1       -7.8818162882        0.0136852680

 CI root     eigenvalue        residual norm

    1       -7.8822794110        0.0090726717

 CI root     eigenvalue        residual norm

    1       -7.8823973325        0.0023426557

 CI root     eigenvalue        residual norm

    1       -7.8824018766        0.0002903016

 CI root     eigenvalue        residual norm

    1       -7.8824019334        0.0000353057

 CI root     eigenvalue        residual norm

    1       -7.8824019339        0.0000032547 converged

 The requested root number is now converged.


 *** CI converged in  7 iterations.



@ Final CI energies and residuals in symmetry 1 (irrep A  )
@    1       -7.882401933917298       3.25D-06

 Writing SIRIFC interface file for CI root no. 1

 CPU and wall time for CI :       0.013       0.121


                       .-----------------------------------.
                       | --- Final results from SIRIUS --- |
                       `-----------------------------------'


@    Spin multiplicity:           1
@    Spatial symmetry:            1 ( irrep  A   in C1  )
@    Total charge of molecule:    0

@    This was a CI calculation.
@    State number:                1

@    Final CI energy:              -7.882401933917
@    Nuclear repulsion:             0.995317637868
@    Electronic energy:            -8.877719571786

@    Final gradient norm:           0.000003254708

 
     Date and time (Linux)  : Mon Jul  6 16:39:43 2026
     Host name              : n-62-11-68                              

 Occupancies of natural orbitals
 -------------------------------

 Symmetry 1  ( A  ) -- Total occupation in this symmetry is   4.000000000

   1.999911092   1.954620414   0.000059453   0.001524636   0.001524636
   0.042359768

  Effective numbers of unpaired electrons this symmetry Eqs. 1) and 2):  0.18  0.01

  Total effective number of unpaired electrons :
  Eq. 1) sum(i) [(2 - n_i) n_i]    =  0.1780
  Eq. 2) sum(i) [(2 - n_i) n_i]**2 =  0.0148
 (Reference: M. Head-Gordon, Chemical Physics Letters 372 (2003) 508-511)

  --- NOTE THAT THE OCCUPATION NUMBERS ARE FOR ANALYSIS PURPOSE ONLY
  --- The orbital coefficients have NOT been transformed
  --- to ordered natural orbitals.

File label for MO orbitals:   6Jul26    CIORB  

 (Only coefficients > 0.0100 are printed.)

 Molecular orbitals for symmetry species 1  (A  )
 ------------------------------------------------

    Orbital         1        2        3        4        5        6
   1 Li  :1s    -0.9912  -0.1674   0.2100   0.0000   0.0000   0.0929
   2 Li  :1s    -0.0327   0.4548  -0.7996  -0.0000  -0.0000  -0.7047
   3 Li  :2px    0.0063   0.3462   0.6121   0.0000   0.0000  -0.9810
   4 Li  :2py   -0.0000   0.0000  -0.0000   0.2117   0.9773  -0.0000
   5 Li  :2pz   -0.0000  -0.0000   0.0000  -0.9773   0.2117  -0.0000
   6 H   :1s    -0.0045   0.5488   0.1398   0.0000   0.0000   1.1873

 Printout of CI-coefficients abs greater than 0.05000 for root  1
 *** NOTE: this root is the CI reference state ***

 Printout of coefficients in interval  3.1623E-01 to  1.0000E+00
 ===============================================================

  Coefficient of CSF no.         1 is      0.98708897    9.87088967E-01
  Orbital          1   2
  Spin coupling    2   2

 Printout of coefficients in interval  1.0000E-01 to  3.1623E-01
 ===============================================================

  Coefficient of CSF no.        11 is     -0.11358919   -1.13589188E-01
  Orbital          1   6
  Spin coupling    2   2

 Printout of coefficients in interval  5.0000E-02 to  1.0000E-01
 ===============================================================

  Coefficient of CSF no.        16 is     -0.05442725   -5.44272493E-02
  Orbital          1   2   3
  Spin coupling    2   1  -1

  Coefficient of CSF no.        23 is     -0.08385601   -8.38560109E-02
  Orbital          1   3   6
  Spin coupling    2   1  -1

 Norm of printed CI vector ..      0.99724129

 Magnitude of CI coefficients
 ============================
 ( Ranges are relative to norm of vector :  1.00E+00 )

  10- 1 to 10- 0         2    0.98724713E+00      0.9872471328
  10- 2 to 10- 1         5    0.12657021E-01      0.9999041537
  10- 3 to 10- 2        11    0.93730494E-04      0.9999978842
  10- 4 to 10- 3        18    0.20954656E-05      0.9999999797
  10- 5 to 10- 4         5    0.20307511E-07      1.0000000000
  Number of coefficients less than 10^-11 times norm is           64

  Total CPU  time used in SIRIUS :   0.07 seconds
  Total wall time used in SIRIUS :   0.66 seconds

 
     Date and time (Linux)  : Mon Jul  6 16:39:44 2026
     Host name              : n-62-11-68                              


                     .---------------------------------------.
                     | End of Wave Function Section (SIRIUS) |
                     `---------------------------------------'



                 .------------------------------------------------.
                 | Starting in Dynamic Property Section (RESPONS) |
                 `------------------------------------------------'


 ----------------------------------------------------------------------------------------
  RESPONSE  -  an MCSCF, MC-srDFT, DFT, SOPPA and SOPPA-srDFT response property program
 ----------------------------------------------------------------------------------------

 This is a configuration interaction response calculation.
   Note: this is equivalent to a CI sum-over-states calculation of response properties.


 -------- OUTPUT FROM RESPONSE INPUT PROCESSING --------




  Linear Response single residue calculation
 -------------------------------------------


    4 input options by user.

 Print level                                    : IPRPP  =   2
 Maximum number of iterations for eigenval.eqs. : MAXITP =  60
 Threshold for convergence of eigenvalue eqs.   : THCPP  = 1.000D-03
 Maximum iterations in optimal orbital algorithm: MAXITO =   5

    300 Excitation energies are calculated for symmetry no.    1

      3 property residues are calculated with labels:

               XDIPLEN 
               YDIPLEN 
               ZDIPLEN 

 Old direct access AO file found, SORTA skipped.

 2-el. integral transformation level 4: Total CPU and WALL times (sec)       0.004       0.014


 CI energy            :       -7.882401933917298
 -- inactive part     :        0.995317637868339
 --   active part     :       -8.877719571785637
 -- nuclear repulsion :        0.995317637868339


                         *******************************
                         *** CI response calculation ***
                         *******************************

 ----------------------------------------------------------------
 ----- Linear response calculation
 ----- Symmetry of excitation/property operator(s)    1  ( A  )
 ----------------------------------------------------------------

 Number of excitations of this symmetry          300
 Number of response properties of this symmetry    0
 Number of C6/C8 properties of this symmetry       0


 Perturbation symmetry.     KSYMOP:           1
 Perturbation spin symmetry.TRPLET:           F
 Orbital variables.         KZWOPT:           0
 Configuration variables.   KZCONF:         105
 Total number of variables. KZVAR :         105

 ** RSPVAR ** Number of PP start vectors  300
   exceeds the maximum number of variables  104
   Number of start vectors reset to number of variables



 --- EXCITATION ENERGIES AND TRANSITION MOMENT CALCULATION (MCTDHF) ---

 Operator symmetry = 1  ( A  ); triplet =   F

RSPORT:    1 out of  105 new trial vectors linear dependent

 ** RSPCTL MICROITERATION NUMBER    1

      Root  Residual tot.,    conf., and orb.    Bnorm      Eigenvalue
      ----------------------------------------------------------------
         1    1.19197D-15  1.19D-15  0.00D+00  1.00D+00    1.33186D-01
         2    4.63461D-15  4.63D-15  0.00D+00  1.00D+00    1.85450D-01
         3    6.17677D-15  6.18D-15  0.00D+00  1.00D+00    1.85450D-01
         4    2.79349D-15  2.79D-15  0.00D+00  1.00D+00    5.63907D-01
         5    6.44663D-15  6.45D-15  0.00D+00  1.00D+00    6.60538D-01
         6    5.83122D-15  5.83D-15  0.00D+00  1.00D+00    6.67171D-01
         7    6.46565D-15  6.47D-15  0.00D+00  1.00D+00    6.67171D-01
         8    5.54327D-15  5.54D-15  0.00D+00  1.00D+00    6.96448D-01
         9    7.31741D-15  7.32D-15  0.00D+00  1.00D+00    6.96448D-01
        10    3.61712D-15  3.62D-15  0.00D+00  1.00D+00    7.51582D-01
        11    7.16912D-15  7.17D-15  0.00D+00  1.00D+00    8.32864D-01
        12    7.71050D-15  7.71D-15  0.00D+00  1.00D+00    8.32864D-01
        13    4.17072D-15  4.17D-15  0.00D+00  1.00D+00    8.75929D-01
        14    2.17793D-15  2.18D-15  0.00D+00  1.00D+00    1.09065D+00
        15    1.35564D-14  1.36D-14  0.00D+00  1.00D+00    2.05646D+00
        16    8.09489D-15  8.09D-15  0.00D+00  1.00D+00    2.12401D+00
        17    1.15730D-14  1.16D-14  0.00D+00  1.00D+00    2.12401D+00
        18    8.27062D-15  8.27D-15  0.00D+00  1.00D+00    2.22897D+00
        19    8.82566D-15  8.83D-15  0.00D+00  1.00D+00    2.25543D+00
        20    1.03265D-14  1.03D-14  0.00D+00  1.00D+00    2.25543D+00
        21    1.06252D-14  1.06D-14  0.00D+00  1.00D+00    2.31033D+00
        22    9.35205D-15  9.35D-15  0.00D+00  1.00D+00    2.31057D+00
        23    9.48521D-15  9.49D-15  0.00D+00  1.00D+00    2.31057D+00
        24    1.09100D-14  1.09D-14  0.00D+00  1.00D+00    2.31624D+00
        25    1.19640D-14  1.20D-14  0.00D+00  1.00D+00    2.31624D+00
        26    1.15685D-14  1.16D-14  0.00D+00  1.00D+00    2.37610D+00
        27    9.22750D-15  9.23D-15  0.00D+00  1.00D+00    2.47247D+00
        28    1.45504D-14  1.46D-14  0.00D+00  1.00D+00    2.54883D+00
        29    1.04253D-14  1.04D-14  0.00D+00  1.00D+00    2.56575D+00
        30    1.08054D-14  1.08D-14  0.00D+00  1.00D+00    2.56575D+00
        31    9.28299D-15  9.28D-15  0.00D+00  1.00D+00    2.67809D+00
        32    1.48074D-14  1.48D-14  0.00D+00  1.00D+00    2.67809D+00
        33    1.90797D-14  1.91D-14  0.00D+00  1.00D+00    2.69905D+00
        34    9.18329D-15  9.18D-15  0.00D+00  1.00D+00    2.74462D+00
        35    2.47340D-14  2.47D-14  0.00D+00  1.00D+00    2.74462D+00
        36    9.20236D-15  9.20D-15  0.00D+00  1.00D+00    2.77862D+00
        37    1.15707D-14  1.16D-14  0.00D+00  1.00D+00    2.77862D+00
        38    1.28403D-14  1.28D-14  0.00D+00  1.00D+00    2.79029D+00
        39    1.85377D-14  1.85D-14  0.00D+00  1.00D+00    2.80058D+00
        40    9.98383D-15  9.98D-15  0.00D+00  1.00D+00    2.81149D+00
        41    1.19452D-14  1.19D-14  0.00D+00  1.00D+00    2.81149D+00
        42    9.82526D-15  9.83D-15  0.00D+00  1.00D+00    2.87763D+00
        43    1.26998D-14  1.27D-14  0.00D+00  1.00D+00    2.92268D+00
        44    1.38137D-14  1.38D-14  0.00D+00  1.00D+00    2.92268D+00
        45    1.29721D-14  1.30D-14  0.00D+00  1.00D+00    2.92524D+00
        46    1.53971D-14  1.54D-14  0.00D+00  1.00D+00    2.92524D+00
        47    1.94223D-14  1.94D-14  0.00D+00  1.00D+00    2.92823D+00
        48    9.58275D-15  9.58D-15  0.00D+00  1.00D+00    2.98027D+00
        49    1.16752D-14  1.17D-14  0.00D+00  1.00D+00    2.98027D+00
        50    1.20934D-14  1.21D-14  0.00D+00  1.00D+00    3.01395D+00
        51    1.17105D-14  1.17D-14  0.00D+00  1.00D+00    3.14392D+00
        52    1.87918D-14  1.88D-14  0.00D+00  1.00D+00    3.18173D+00
        53    1.67058D-14  1.67D-14  0.00D+00  1.00D+00    3.22332D+00
        54    1.79545D-14  1.80D-14  0.00D+00  1.00D+00    3.22332D+00
        55    1.64182D-14  1.64D-14  0.00D+00  1.00D+00    5.29891D+00
        56    1.07132D-14  1.07D-14  0.00D+00  1.00D+00    5.35928D+00
        57    2.88245D-14  2.88D-14  0.00D+00  1.00D+00    5.35928D+00
        58    1.57863D-14  1.58D-14  0.00D+00  1.00D+00    5.41068D+00
        59    1.59075D-14  1.59D-14  0.00D+00  1.00D+00    5.41068D+00
        60    3.48622D-14  3.49D-14  0.00D+00  1.00D+00    5.45675D+00
        61    1.55856D-14  1.56D-14  0.00D+00  1.00D+00    5.54316D+00
        62    1.26611D-14  1.27D-14  0.00D+00  1.00D+00    5.54316D+00
        63    2.64018D-14  2.64D-14  0.00D+00  1.00D+00    5.54624D+00
        64    2.79489D-14  2.79D-14  0.00D+00  1.00D+00    5.54624D+00
        65    1.58816D-14  1.59D-14  0.00D+00  1.00D+00    5.57778D+00
        66    1.05884D-14  1.06D-14  0.00D+00  1.00D+00    5.60805D+00
        67    1.61759D-14  1.62D-14  0.00D+00  1.00D+00    5.63757D+00
        68    1.99231D-14  1.99D-14  0.00D+00  1.00D+00    5.63757D+00
        69    2.86807D-14  2.87D-14  0.00D+00  1.00D+00    5.72347D+00
        70    2.12966D-14  2.13D-14  0.00D+00  1.00D+00    5.74305D+00
        71    2.13478D-14  2.13D-14  0.00D+00  1.00D+00    5.74305D+00
        72    1.52641D-14  1.53D-14  0.00D+00  1.00D+00    5.84742D+00
        73    2.46573D-14  2.47D-14  0.00D+00  1.00D+00    5.84742D+00
        74    1.66209D-14  1.66D-14  0.00D+00  1.00D+00    5.86878D+00
        75    2.01951D-14  2.02D-14  0.00D+00  1.00D+00    5.92505D+00
        76    1.04569D-14  1.05D-14  0.00D+00  1.00D+00    5.97253D+00
        77    1.74109D-14  1.74D-14  0.00D+00  1.00D+00    5.97253D+00
        78    2.37764D-14  2.38D-14  0.00D+00  1.00D+00    5.98589D+00
        79    1.40996D-14  1.41D-14  0.00D+00  1.00D+00    5.99603D+00
        80    1.77706D-14  1.78D-14  0.00D+00  1.00D+00    5.99603D+00
        81    1.58064D-14  1.58D-14  0.00D+00  1.00D+00    6.05974D+00
        82    2.34222D-14  2.34D-14  0.00D+00  1.00D+00    6.05974D+00
        83    1.85236D-14  1.85D-14  0.00D+00  1.00D+00    6.06716D+00
        84    2.83855D-14  2.84D-14  0.00D+00  1.00D+00    6.06716D+00
        85    1.77746D-14  1.78D-14  0.00D+00  1.00D+00    6.09142D+00
        86    2.76237D-14  2.76D-14  0.00D+00  1.00D+00    6.12134D+00
        87    1.77658D-14  1.78D-14  0.00D+00  1.00D+00    6.17187D+00
        88    2.39280D-14  2.39D-14  0.00D+00  1.00D+00    6.17187D+00
        89    1.55339D-14  1.55D-14  0.00D+00  1.00D+00    6.21370D+00
        90    1.45168D-14  1.45D-14  0.00D+00  1.00D+00    6.23013D+00
        91    2.10279D-14  2.10D-14  0.00D+00  1.00D+00    6.23013D+00
        92    1.70301D-14  1.70D-14  0.00D+00  1.00D+00    6.24733D+00
        93    2.85024D-14  2.85D-14  0.00D+00  1.00D+00    6.24733D+00
        94    2.13975D-14  2.14D-14  0.00D+00  1.00D+00    6.27207D+00
        95    1.93775D-14  1.94D-14  0.00D+00  1.00D+00    6.32924D+00
        96    2.62729D-14  2.63D-14  0.00D+00  1.00D+00    6.46138D+00
        97    2.28814D-14  2.29D-14  0.00D+00  1.00D+00    6.50365D+00
        98    2.11524D-14  2.12D-14  0.00D+00  1.00D+00    6.50365D+00
        99    1.55454D-14  1.55D-14  0.00D+00  1.00D+00    6.51452D+00
       100    3.21254D-14  3.21D-14  0.00D+00  1.00D+00    6.51452D+00
       101    1.41761D-14  1.42D-14  0.00D+00  1.00D+00    6.53207D+00
       102    2.83527D-14  2.84D-14  0.00D+00  1.00D+00    6.53207D+00
       103    2.78985D-14  2.79D-14  0.00D+00  1.00D+00    6.53517D+00
       104    3.16255D-14  3.16D-14  0.00D+00  1.00D+00    6.61936D+00
       105    1.05937D-15  1.06D-15  0.00D+00  1.00D+00   -1.33186D-01

 *** THE REQUESTED  104 SOLUTION VECTORS CONVERGED

 Convergence of RSP solution vectors, threshold = 1.00D-03
 ---------------------------------------------------------------
 (dimension of paired reduced space:  208)
 RSP solution vector no.    1; norm of residual   1.19D-15
 RSP solution vector no.    2; norm of residual   4.63D-15
 RSP solution vector no.    3; norm of residual   6.18D-15
 RSP solution vector no.    4; norm of residual   2.79D-15
 RSP solution vector no.    5; norm of residual   6.45D-15
 RSP solution vector no.    6; norm of residual   5.83D-15
 RSP solution vector no.    7; norm of residual   6.47D-15
 RSP solution vector no.    8; norm of residual   5.54D-15
 RSP solution vector no.    9; norm of residual   7.32D-15
 RSP solution vector no.   10; norm of residual   3.62D-15
 RSP solution vector no.   11; norm of residual   7.17D-15
 RSP solution vector no.   12; norm of residual   7.71D-15
 RSP solution vector no.   13; norm of residual   4.17D-15
 RSP solution vector no.   14; norm of residual   2.18D-15
 RSP solution vector no.   15; norm of residual   1.36D-14
 RSP solution vector no.   16; norm of residual   8.09D-15
 RSP solution vector no.   17; norm of residual   1.16D-14
 RSP solution vector no.   18; norm of residual   8.27D-15
 RSP solution vector no.   19; norm of residual   8.83D-15
 RSP solution vector no.   20; norm of residual   1.03D-14
 RSP solution vector no.   21; norm of residual   1.06D-14
 RSP solution vector no.   22; norm of residual   9.35D-15
 RSP solution vector no.   23; norm of residual   9.49D-15
 RSP solution vector no.   24; norm of residual   1.09D-14
 RSP solution vector no.   25; norm of residual   1.20D-14
 RSP solution vector no.   26; norm of residual   1.16D-14
 RSP solution vector no.   27; norm of residual   9.23D-15
 RSP solution vector no.   28; norm of residual   1.46D-14
 RSP solution vector no.   29; norm of residual   1.04D-14
 RSP solution vector no.   30; norm of residual   1.08D-14
 RSP solution vector no.   31; norm of residual   9.28D-15
 RSP solution vector no.   32; norm of residual   1.48D-14
 RSP solution vector no.   33; norm of residual   1.91D-14
 RSP solution vector no.   34; norm of residual   9.18D-15
 RSP solution vector no.   35; norm of residual   2.47D-14
 RSP solution vector no.   36; norm of residual   9.20D-15
 RSP solution vector no.   37; norm of residual   1.16D-14
 RSP solution vector no.   38; norm of residual   1.28D-14
 RSP solution vector no.   39; norm of residual   1.85D-14
 RSP solution vector no.   40; norm of residual   9.98D-15
 RSP solution vector no.   41; norm of residual   1.19D-14
 RSP solution vector no.   42; norm of residual   9.83D-15
 RSP solution vector no.   43; norm of residual   1.27D-14
 RSP solution vector no.   44; norm of residual   1.38D-14
 RSP solution vector no.   45; norm of residual   1.30D-14
 RSP solution vector no.   46; norm of residual   1.54D-14
 RSP solution vector no.   47; norm of residual   1.94D-14
 RSP solution vector no.   48; norm of residual   9.58D-15
 RSP solution vector no.   49; norm of residual   1.17D-14
 RSP solution vector no.   50; norm of residual   1.21D-14
 RSP solution vector no.   51; norm of residual   1.17D-14
 RSP solution vector no.   52; norm of residual   1.88D-14
 RSP solution vector no.   53; norm of residual   1.67D-14
 RSP solution vector no.   54; norm of residual   1.80D-14
 RSP solution vector no.   55; norm of residual   1.64D-14
 RSP solution vector no.   56; norm of residual   1.07D-14
 RSP solution vector no.   57; norm of residual   2.88D-14
 RSP solution vector no.   58; norm of residual   1.58D-14
 RSP solution vector no.   59; norm of residual   1.59D-14
 RSP solution vector no.   60; norm of residual   3.49D-14
 RSP solution vector no.   61; norm of residual   1.56D-14
 RSP solution vector no.   62; norm of residual   1.27D-14
 RSP solution vector no.   63; norm of residual   2.64D-14
 RSP solution vector no.   64; norm of residual   2.79D-14
 RSP solution vector no.   65; norm of residual   1.59D-14
 RSP solution vector no.   66; norm of residual   1.06D-14
 RSP solution vector no.   67; norm of residual   1.62D-14
 RSP solution vector no.   68; norm of residual   1.99D-14
 RSP solution vector no.   69; norm of residual   2.87D-14
 RSP solution vector no.   70; norm of residual   2.13D-14
 RSP solution vector no.   71; norm of residual   2.13D-14
 RSP solution vector no.   72; norm of residual   1.53D-14
 RSP solution vector no.   73; norm of residual   2.47D-14
 RSP solution vector no.   74; norm of residual   1.66D-14
 RSP solution vector no.   75; norm of residual   2.02D-14
 RSP solution vector no.   76; norm of residual   1.05D-14
 RSP solution vector no.   77; norm of residual   1.74D-14
 RSP solution vector no.   78; norm of residual   2.38D-14
 RSP solution vector no.   79; norm of residual   1.41D-14
 RSP solution vector no.   80; norm of residual   1.78D-14
 RSP solution vector no.   81; norm of residual   1.58D-14
 RSP solution vector no.   82; norm of residual   2.34D-14
 RSP solution vector no.   83; norm of residual   1.85D-14
 RSP solution vector no.   84; norm of residual   2.84D-14
 RSP solution vector no.   85; norm of residual   1.78D-14
 RSP solution vector no.   86; norm of residual   2.76D-14
 RSP solution vector no.   87; norm of residual   1.78D-14
 RSP solution vector no.   88; norm of residual   2.39D-14
 RSP solution vector no.   89; norm of residual   1.55D-14
 RSP solution vector no.   90; norm of residual   1.45D-14
 RSP solution vector no.   91; norm of residual   2.10D-14
 RSP solution vector no.   92; norm of residual   1.70D-14
 RSP solution vector no.   93; norm of residual   2.85D-14
 RSP solution vector no.   94; norm of residual   2.14D-14
 RSP solution vector no.   95; norm of residual   1.94D-14
 RSP solution vector no.   96; norm of residual   2.63D-14
 RSP solution vector no.   97; norm of residual   2.29D-14
 RSP solution vector no.   98; norm of residual   2.12D-14
 RSP solution vector no.   99; norm of residual   1.55D-14
 RSP solution vector no.  100; norm of residual   3.21D-14
 RSP solution vector no.  101; norm of residual   1.42D-14
 RSP solution vector no.  102; norm of residual   2.84D-14
 RSP solution vector no.  103; norm of residual   2.79D-14
 RSP solution vector no.  104; norm of residual   3.16D-14

 *** RSPCTL MICROITERATIONS CONVERGED

@ Singlet transition operator label: XDIPLEN 
@ STATE NO:    1 *TRANSITION MOMENT:  0.73454840     *ENERGY(eV):   3.6241685    
@ STATE NO:    2 *TRANSITION MOMENT: -2.17939095E-15 *ENERGY(eV):   5.0463497    
@ STATE NO:    3 *TRANSITION MOMENT: -2.21241376E-15 *ENERGY(eV):   5.0463497    
@ STATE NO:    4 *TRANSITION MOMENT:  0.45094667     *ENERGY(eV):   15.344701    
@ STATE NO:    5 *TRANSITION MOMENT:  0.68985570     *ENERGY(eV):   17.974158    
@ STATE NO:    6 *TRANSITION MOMENT:  3.39311912E-14 *ENERGY(eV):   18.154658    
@ STATE NO:    7 *TRANSITION MOMENT: -8.44051391E-17 *ENERGY(eV):   18.154658    
@ STATE NO:    8 *TRANSITION MOMENT: -2.40596758E-15 *ENERGY(eV):   18.951316    
@ STATE NO:    9 *TRANSITION MOMENT:  1.05443950E-15 *ENERGY(eV):   18.951316    
@ STATE NO:   10 *TRANSITION MOMENT:  7.53005541E-02 *ENERGY(eV):   20.451588    
@ STATE NO:   11 *TRANSITION MOMENT:  5.76324735E-16 *ENERGY(eV):   22.663385    
@ STATE NO:   12 *TRANSITION MOMENT:  3.55449993E-16 *ENERGY(eV):   22.663385    
@ STATE NO:   13 *TRANSITION MOMENT: -4.50485720E-02 *ENERGY(eV):   23.835232    
@ STATE NO:   14 *TRANSITION MOMENT: -9.09844178E-02 *ENERGY(eV):   29.678120    
@ STATE NO:   15 *TRANSITION MOMENT:  0.21234073     *ENERGY(eV):   55.959097    

@ Singlet transition operator label: YDIPLEN 
@ STATE NO:    1 *TRANSITION MOMENT: -3.64850200E-15 *ENERGY(eV):   3.6241685    
@ STATE NO:    2 *TRANSITION MOMENT:  -1.4155257     *ENERGY(eV):   5.0463497    
@ STATE NO:    3 *TRANSITION MOMENT:  0.12455507     *ENERGY(eV):   5.0463497    
@ STATE NO:    4 *TRANSITION MOMENT:  1.31868860E-15 *ENERGY(eV):   15.344701    
@ STATE NO:    5 *TRANSITION MOMENT: -7.93164674E-16 *ENERGY(eV):   17.974158    
@ STATE NO:    6 *TRANSITION MOMENT: -1.14096377E-15 *ENERGY(eV):   18.154658    
@ STATE NO:    7 *TRANSITION MOMENT:  2.86761872E-15 *ENERGY(eV):   18.154658    
@ STATE NO:    8 *TRANSITION MOMENT: -7.26113043E-02 *ENERGY(eV):   18.951316    
@ STATE NO:    9 *TRANSITION MOMENT: -0.10775295     *ENERGY(eV):   18.951316    
@ STATE NO:   10 *TRANSITION MOMENT:  4.01335676E-16 *ENERGY(eV):   20.451588    
@ STATE NO:   11 *TRANSITION MOMENT:  6.14612849E-02 *ENERGY(eV):   22.663385    
@ STATE NO:   12 *TRANSITION MOMENT: -4.91996149E-02 *ENERGY(eV):   22.663385    
@ STATE NO:   13 *TRANSITION MOMENT:  1.15291744E-15 *ENERGY(eV):   23.835232    
@ STATE NO:   14 *TRANSITION MOMENT:  5.73989353E-16 *ENERGY(eV):   29.678120    
@ STATE NO:   15 *TRANSITION MOMENT: -4.40937860E-16 *ENERGY(eV):   55.959097    

@ Singlet transition operator label: ZDIPLEN 
@ STATE NO:    1 *TRANSITION MOMENT: -1.66606538E-16 *ENERGY(eV):   3.6241685    
@ STATE NO:    2 *TRANSITION MOMENT:  0.11292933     *ENERGY(eV):   5.0463497    
@ STATE NO:    3 *TRANSITION MOMENT:   1.4145502     *ENERGY(eV):   5.0463497    
@ STATE NO:    4 *TRANSITION MOMENT:  3.62327466E-16 *ENERGY(eV):   15.344701    
@ STATE NO:    5 *TRANSITION MOMENT: -5.71856104E-16 *ENERGY(eV):   17.974158    
@ STATE NO:    6 *TRANSITION MOMENT:  9.45048745E-15 *ENERGY(eV):   18.154658    
@ STATE NO:    7 *TRANSITION MOMENT:  2.10384719E-15 *ENERGY(eV):   18.154658    
@ STATE NO:    8 *TRANSITION MOMENT:  0.10185730     *ENERGY(eV):   18.951316    
@ STATE NO:    9 *TRANSITION MOMENT: -6.35343376E-02 *ENERGY(eV):   18.951316    
@ STATE NO:   10 *TRANSITION MOMENT: -1.02287594E-15 *ENERGY(eV):   20.451588    
@ STATE NO:   11 *TRANSITION MOMENT: -4.82945217E-02 *ENERGY(eV):   22.663385    
@ STATE NO:   12 *TRANSITION MOMENT: -6.07391822E-02 *ENERGY(eV):   22.663385    
@ STATE NO:   13 *TRANSITION MOMENT: -8.12636945E-16 *ENERGY(eV):   23.835232    
@ STATE NO:   14 *TRANSITION MOMENT:  1.22910681E-16 *ENERGY(eV):   29.678120    
@ STATE NO:   15 *TRANSITION MOMENT:  3.48708425E-16 *ENERGY(eV):   55.959097    


 **************************************************************************************
 *** @ Excit. operator sym 1 & ref. state sym 1 => excited state symmetry 1  ( A  ) ***
 **************************************************************************************



 @ Excited state no:    1 in symmetry 1  ( A  ) - singlet excitation
 -------------------------------------------------------------------

@ Excitation energy :  0.13318575     au
@                       3.6241685     eV;   29230.892     cm-1;   349.67912     kJ / mol

@ Total energy :       -7.7492162     au

@ Operator label: XDIPLEN ; Transition moment :  0.73454840     au
@ Oscillator strength (LENGTH)   :  4.79079201E-02  (X-polarization)

@ Operator label: YDIPLEN ; Transition moment : -3.64850200E-15 au
@ Oscillator strength (LENGTH)   :  1.18194063E-30  (Y-polarization)

@ Operator label: ZDIPLEN ; Transition moment : -1.66606538E-16 au
@ Oscillator strength (LENGTH)   :  2.46462339E-33  (Z-polarization)
@ Total oscillator strength (LENGTH)   :  4.79079201E-02

 Eigenvector for state no.  1

      Index(conf)                         Z operator          Y operator
      ----------                      --------------      --------------
           2                            0.1902881821        0.0000000000
          16                            0.9470755204        0.0000000000
          23                            0.2351754225        0.0000000000

      102 elements with absolute value ≤ 1.00D-01 are not printed.

 Printout of coefficients in interval  3.1623E-01 to  1.0000E+00
 ===============================================================

  Coefficient of CSF no.        16 is      0.94707552    9.47075520E-01
  Orbital          1   2   3
  Spin coupling    2   1  -1

 Printout of coefficients in interval  1.0000E-01 to  3.1623E-01
 ===============================================================

  Coefficient of CSF no.         2 is      0.19028818    1.90288182E-01
  Orbital          1   3
  Spin coupling    2   2

  Coefficient of CSF no.        23 is      0.23517542    2.35175423E-01
  Orbital          1   3   6
  Spin coupling    2   1  -1

 Norm of printed CI vector ..      0.98846911

 Magnitude of CI coefficients
 ============================
 ( Ranges are relative to norm of vector :  1.00E+00 )

  10- 1 to 10- 0         3    0.98846911E+00      0.9884691129
  10- 2 to 10- 1         5    0.11263603E-01      0.9997327160
  10- 3 to 10- 2        19    0.26598516E-03      0.9999987012
  10- 4 to 10- 3         9    0.12830394E-05      0.9999999842
  10- 5 to 10- 4         5    0.15803293E-07      1.0000000000
  Number of coefficients less than 10^-11 times norm is           64


 @ Excited state no:    2 in symmetry 1  ( A  ) - singlet excitation
 -------------------------------------------------------------------

@ Excitation energy :  0.18544994     au
@                       5.0463497     eV;   40701.558     cm-1;   486.89875     kJ / mol

@ Total energy :       -7.6969520     au

@ Operator label: XDIPLEN ; Transition moment : -2.17939095E-15 au
@ Oscillator strength (LENGTH)   :  5.87226620E-31  (X-polarization)

@ Operator label: YDIPLEN ; Transition moment :  -1.4155257     au
@ Oscillator strength (LENGTH)   :  0.24772565      (Y-polarization)

@ Operator label: ZDIPLEN ; Transition moment :  0.11292933     au
@ Oscillator strength (LENGTH)   :  1.57669969E-03  (Z-polarization)
@ Total oscillator strength (LENGTH)   :  0.24930235    

 Eigenvector for state no.  2

      Index(conf)                         Z operator          Y operator
      ----------                      --------------      --------------
          17                           -0.2733168186        0.0000000000
          19                           -0.9060775804        0.0000000000
          20                           -0.1605129966        0.0000000000
          25                           -0.2639119199        0.0000000000

      101 elements with absolute value ≤ 1.00D-01 are not printed.

 Printout of coefficients in interval  3.1623E-01 to  1.0000E+00
 ===============================================================

  Coefficient of CSF no.        19 is     -0.90607758   -9.06077580E-01
  Orbital          1   2   5
  Spin coupling    2   1  -1

 Printout of coefficients in interval  1.0000E-01 to  3.1623E-01
 ===============================================================

  Coefficient of CSF no.        17 is     -0.27331682   -2.73316819E-01
  Orbital          1   2   4
  Spin coupling    2   1  -1

  Coefficient of CSF no.        20 is     -0.16051300   -1.60512997E-01
  Orbital          1   3   5
  Spin coupling    2   1  -1

  Coefficient of CSF no.        25 is     -0.26391192   -2.63911920E-01
  Orbital          1   5   6
  Spin coupling    2   1  -1

 Norm of printed CI vector ..      0.99109259

 Magnitude of CI coefficients
 ============================
 ( Ranges are relative to norm of vector :  1.00E+00 )

  10- 1 to 10- 0         4    0.99109259E+00      0.9910925886
  10- 2 to 10- 1         2    0.86818784E-02      0.9997744670
  10- 3 to 10- 2        18    0.21883218E-03      0.9999932992
  10- 4 to 10- 3        21    0.66929074E-05      0.9999999921
  10- 5 to 10- 4         3    0.79144851E-08      1.0000000000
  Number of coefficients less than 10^-11 times norm is           57


 @ Excited state no:    3 in symmetry 1  ( A  ) - singlet excitation
 -------------------------------------------------------------------

@ Excitation energy :  0.18544994     au
@                       5.0463497     eV;   40701.558     cm-1;   486.89875     kJ / mol

@ Total energy :       -7.6969520     au

@ Operator label: XDIPLEN ; Transition moment : -2.21241376E-15 au
@ Oscillator strength (LENGTH)   :  6.05157123E-31  (X-polarization)

@ Operator label: YDIPLEN ; Transition moment :  0.12455507     au
@ Oscillator strength (LENGTH)   :  1.91804272E-03  (Y-polarization)

@ Operator label: ZDIPLEN ; Transition moment :   1.4145502     au
@ Oscillator strength (LENGTH)   :  0.24738431      (Z-polarization)
@ Total oscillator strength (LENGTH)   :  0.24930235    

 Eigenvector for state no.  3

      Index(conf)                         Z operator          Y operator
      ----------                      --------------      --------------
          17                           -0.9038015091        0.0000000000
          18                           -0.1601097872        0.0000000000
          19                            0.2807516645        0.0000000000
          24                           -0.2632489719        0.0000000000

      101 elements with absolute value ≤ 1.00D-01 are not printed.

 Printout of coefficients in interval  3.1623E-01 to  1.0000E+00
 ===============================================================

  Coefficient of CSF no.        17 is     -0.90380151   -9.03801509E-01
  Orbital          1   2   4
  Spin coupling    2   1  -1

 Printout of coefficients in interval  1.0000E-01 to  3.1623E-01
 ===============================================================

  Coefficient of CSF no.        18 is     -0.16010979   -1.60109787E-01
  Orbital          1   3   4
  Spin coupling    2   1  -1

  Coefficient of CSF no.        19 is      0.28075166    2.80751664E-01
  Orbital          1   2   5
  Spin coupling    2   1  -1

  Coefficient of CSF no.        24 is     -0.26324897   -2.63248972E-01
  Orbital          1   4   6
  Spin coupling    2   1  -1

 Norm of printed CI vector ..      0.99061383

 Magnitude of CI coefficients
 ============================
 ( Ranges are relative to norm of vector :  1.00E+00 )

  10- 1 to 10- 0         4    0.99061383E+00      0.9906138302
  10- 2 to 10- 1         2    0.91606368E-02      0.9997744670
  10- 3 to 10- 2        18    0.21863979E-03      0.9999931068
  10- 4 to 10- 3        21    0.68850592E-05      0.9999999918
  10- 5 to 10- 4         3    0.81554861E-08      1.0000000000
  Number of coefficients less than 10^-11 times norm is           57


 @ Excited state no:    4 in symmetry 1  ( A  ) - singlet excitation
 -------------------------------------------------------------------

@ Excitation energy :  0.56390741     au
@                       15.344701     eV;   123763.37     cm-1;   1480.5387     kJ / mol

@ Total energy :       -7.3184945     au

@ Operator label: XDIPLEN ; Transition moment :  0.45094667     au
@ Oscillator strength (LENGTH)   :  7.64481371E-02  (X-polarization)

@ Operator label: YDIPLEN ; Transition moment :  1.31868860E-15 au
@ Oscillator strength (LENGTH)   :  6.53733962E-31  (Y-polarization)

@ Operator label: ZDIPLEN ; Transition moment :  3.62327466E-16 au
@ Oscillator strength (LENGTH)   :  4.93536249E-32  (Z-polarization)
@ Total oscillator strength (LENGTH)   :  7.64481371E-02

 Eigenvector for state no.  4

      Index(conf)                         Z operator          Y operator
      ----------                      --------------      --------------
           2                           -0.5667866289        0.0000000000
           4                            0.3701012077        0.0000000000
           7                            0.3701012077        0.0000000000
          16                            0.2225996798        0.0000000000
          22                            0.4194958818        0.0000000000
          23                           -0.4188172950        0.0000000000

       99 elements with absolute value ≤ 1.00D-01 are not printed.

 Printout of coefficients in interval  3.1623E-01 to  1.0000E+00
 ===============================================================

  Coefficient of CSF no.         2 is     -0.56678663   -5.66786629E-01
  Orbital          1   3
  Spin coupling    2   2

  Coefficient of CSF no.         4 is      0.37010121    3.70101208E-01
  Orbital          1   4
  Spin coupling    2   2

  Coefficient of CSF no.         7 is      0.37010121    3.70101208E-01
  Orbital          1   5
  Spin coupling    2   2

  Coefficient of CSF no.        22 is      0.41949588    4.19495882E-01
  Orbital          1   2   6
  Spin coupling    2   1  -1

  Coefficient of CSF no.        23 is     -0.41881729   -4.18817295E-01
  Orbital          1   3   6
  Spin coupling    2   1  -1

 Printout of coefficients in interval  1.0000E-01 to  3.1623E-01
 ===============================================================

  Coefficient of CSF no.        16 is      0.22259968    2.22599680E-01
  Orbital          1   2   3
  Spin coupling    2   1  -1

 Norm of printed CI vector ..      0.99613223

 Magnitude of CI coefficients
 ============================
 ( Ranges are relative to norm of vector :  1.00E+00 )

  10- 1 to 10- 0         6    0.99613223E+00      0.9961322295
  10- 2 to 10- 1         4    0.36612600E-02      0.9997934895
  10- 3 to 10- 2        16    0.20291968E-03      0.9999964092
  10- 4 to 10- 3        12    0.35716163E-05      0.9999999808
  10- 5 to 10- 4         3    0.19191474E-07      1.0000000000
  Number of coefficients less than 10^-11 times norm is           64


 @ Excited state no:    5 in symmetry 1  ( A  ) - singlet excitation
 -------------------------------------------------------------------

@ Excitation energy :  0.66053818     au
@                       17.974158     eV;   144971.37     cm-1;   1734.2427     kJ / mol

@ Total energy :       -7.2218638     au

@ Operator label: XDIPLEN ; Transition moment :  0.68985570     au
@ Oscillator strength (LENGTH)   :  0.20956714      (X-polarization)

@ Operator label: YDIPLEN ; Transition moment : -7.93164674E-16 au
@ Oscillator strength (LENGTH)   :  2.77034205E-31  (Y-polarization)

@ Operator label: ZDIPLEN ; Transition moment : -5.71856104E-16 au
@ Oscillator strength (LENGTH)   :  1.44005869E-31  (Z-polarization)
@ Total oscillator strength (LENGTH)   :  0.20956714    

 Eigenvector for state no.  5

      Index(conf)                         Z operator          Y operator
      ----------                      --------------      --------------
           2                            0.4118324800        0.0000000000
          16                           -0.1017336582        0.0000000000
          22                            0.8722290847        0.0000000000
          23                            0.2399027316        0.0000000000

      101 elements with absolute value ≤ 1.00D-01 are not printed.

 Printout of coefficients in interval  3.1623E-01 to  1.0000E+00
 ===============================================================

  Coefficient of CSF no.         2 is      0.41183248    4.11832480E-01
  Orbital          1   3
  Spin coupling    2   2

  Coefficient of CSF no.        22 is      0.87222908    8.72229085E-01
  Orbital          1   2   6
  Spin coupling    2   1  -1

 Printout of coefficients in interval  1.0000E-01 to  3.1623E-01
 ===============================================================

  Coefficient of CSF no.        16 is     -0.10173366   -1.01733658E-01
  Orbital          1   2   3
  Spin coupling    2   1  -1

  Coefficient of CSF no.        23 is      0.23990273    2.39902732E-01
  Orbital          1   3   6
  Spin coupling    2   1  -1

 Printout of coefficients in interval  1.0000E-01 to  1.0000E-01
 ===============================================================
   ( no coefficients )

 Norm of printed CI vector ..      0.99829263

 Magnitude of CI coefficients
 ============================
 ( Ranges are relative to norm of vector :  1.00E+00 )

  10- 1 to 10- 0         4    0.99829263E+00      0.9982926255
  10- 2 to 10- 1         5    0.14742367E-02      0.9997668622
  10- 3 to 10- 2        15    0.22815976E-03      0.9999950220
  10- 4 to 10- 3        15    0.49751026E-05      0.9999999971
  10- 5 to 10- 4         2    0.29154234E-08      1.0000000000
  Number of coefficients less than 10^-11 times norm is           64


 @ Excited state no:    6 in symmetry 1  ( A  ) - singlet excitation
 -------------------------------------------------------------------

@ Excitation energy :  0.66717144     au
@                       18.154658     eV;   146427.20     cm-1;   1751.6583     kJ / mol

@ Total energy :       -7.2152305     au

@ Operator label: XDIPLEN ; Transition moment :  3.39311912E-14 au
@ Oscillator strength (LENGTH)   :  5.12087765E-28  (X-polarization)

@ Operator label: YDIPLEN ; Transition moment : -1.14096377E-15 au
@ Oscillator strength (LENGTH)   :  5.79015104E-31  (Y-polarization)

@ Operator label: ZDIPLEN ; Transition moment :  9.45048745E-15 au
@ Oscillator strength (LENGTH)   :  3.97241494E-29  (Z-polarization)
@ Total oscillator strength (LENGTH)   :  5.52390929E-28

 Eigenvector for state no.  6

      Index(conf)                         Z operator          Y operator
      ----------                      --------------      --------------
           4                           -0.7068764114        0.0000000000
           7                            0.7068764114        0.0000000000

      103 elements with absolute value ≤ 1.00D-01 are not printed.

 Printout of coefficients in interval  3.1623E-01 to  1.0000E+00
 ===============================================================

  Coefficient of CSF no.         4 is     -0.70687641   -7.06876411E-01
  Orbital          1   4
  Spin coupling    2   2

  Coefficient of CSF no.         7 is      0.70687641    7.06876411E-01
  Orbital          1   5
  Spin coupling    2   2

 Printout of coefficients in interval  1.0000E-01 to  3.1623E-01
 ===============================================================
   ( no coefficients )

 Norm of printed CI vector ..      0.99934852

 Magnitude of CI coefficients
 ============================
 ( Ranges are relative to norm of vector :  1.00E+00 )

  10- 1 to 10- 0         2    0.99934852E+00      0.9993485220
  10- 2 to 10- 1         4    0.57657382E-03      0.9999250959
  10- 3 to 10- 2        12    0.73892637E-04      0.9999989885
  10- 4 to 10- 3         2    0.10114968E-05      1.0000000000
  Number of coefficients less than 10^-11 times norm is           85


 @ Excited state no:    7 in symmetry 1  ( A  ) - singlet excitation
 -------------------------------------------------------------------

@ Excitation energy :  0.66717144     au
@                       18.154658     eV;   146427.20     cm-1;   1751.6583     kJ / mol

@ Total energy :       -7.2152305     au

@ Operator label: XDIPLEN ; Transition moment : -8.44051391E-17 au
@ Oscillator strength (LENGTH)   :  3.16872074E-33  (X-polarization)

@ Operator label: YDIPLEN ; Transition moment :  2.86761872E-15 au
@ Oscillator strength (LENGTH)   :  3.65753930E-30  (Y-polarization)

@ Operator label: ZDIPLEN ; Transition moment :  2.10384719E-15 au
@ Oscillator strength (LENGTH)   :  1.96867748E-30  (Z-polarization)
@ Total oscillator strength (LENGTH)   :  5.62938550E-30

 Eigenvector for state no.  7

      Index(conf)                         Z operator          Y operator
      ----------                      --------------      --------------
          21                            0.9996690130        0.0000000000

      104 elements with absolute value ≤ 1.00D-01 are not printed.

 Printout of coefficients in interval  3.1623E-01 to  1.0000E+00
 ===============================================================

  Coefficient of CSF no.        21 is      0.99966901    9.99669013E-01
  Orbital          1   4   5
  Spin coupling    2   1  -1

 Printout of coefficients in interval  1.0000E-01 to  3.1623E-01
 ===============================================================
   ( no coefficients )

 Norm of printed CI vector ..      0.99933814

 Magnitude of CI coefficients
 ============================
 ( Ranges are relative to norm of vector :  1.00E+00 )

  10- 1 to 10- 0         1    0.99933814E+00      0.9993381356
  10- 2 to 10- 1         2    0.51766467E-03      0.9998558002
  10- 3 to 10- 2        10    0.14318149E-03      0.9999989817
  10- 4 to 10- 3         2    0.10114863E-05      0.9999999932
  10- 5 to 10- 4         6    0.62542242E-08      0.9999999995
  10- 6 to 10- 5        12    0.51674140E-09      1.0000000000
  Number of coefficients less than 10^-11 times norm is           72


 @ Excited state no:    8 in symmetry 1  ( A  ) - singlet excitation
 -------------------------------------------------------------------

@ Excitation energy :  0.69644808     au
@                       18.951316     eV;   152852.68     cm-1;   1828.5241     kJ / mol

@ Total energy :       -7.1859539     au

@ Operator label: XDIPLEN ; Transition moment : -2.40596758E-15 au
@ Oscillator strength (LENGTH)   :  2.68767670E-30  (X-polarization)

@ Operator label: YDIPLEN ; Transition moment : -7.26113043E-02 au
@ Oscillator strength (LENGTH)   :  2.44796927E-03  (Y-polarization)

@ Operator label: ZDIPLEN ; Transition moment :  0.10185730     au
@ Oscillator strength (LENGTH)   :  4.81705681E-03  (Z-polarization)
@ Total oscillator strength (LENGTH)   :  7.26502608E-03

 Eigenvector for state no.  8

      Index(conf)                         Z operator          Y operator
      ----------                      --------------      --------------
          17                           -0.2095873541        0.0000000000
          18                            0.8739447642        0.0000000000
          20                            0.3756485657        0.0000000000
          24                            0.1884658685        0.0000000000

      101 elements with absolute value ≤ 1.00D-01 are not printed.

 Printout of coefficients in interval  3.1623E-01 to  1.0000E+00
 ===============================================================

  Coefficient of CSF no.        18 is      0.87394476    8.73944764E-01
  Orbital          1   3   4
  Spin coupling    2   1  -1

  Coefficient of CSF no.        20 is      0.37564857    3.75648566E-01
  Orbital          1   3   5
  Spin coupling    2   1  -1

 Printout of coefficients in interval  1.0000E-01 to  3.1623E-01
 ===============================================================

  Coefficient of CSF no.        17 is     -0.20958735   -2.09587354E-01
  Orbital          1   2   4
  Spin coupling    2   1  -1

  Coefficient of CSF no.        24 is      0.18846587    1.88465868E-01
  Orbital          1   4   6
  Spin coupling    2   1  -1

 Printout of coefficients in interval  1.0000E-01 to  1.0000E-01
 ===============================================================
   ( no coefficients )

 Norm of printed CI vector ..      0.98433754

 Magnitude of CI coefficients
 ============================
 ( Ranges are relative to norm of vector :  1.00E+00 )

  10- 1 to 10- 0         4    0.98433754E+00      0.9843375384
  10- 2 to 10- 1         4    0.15365139E-01      0.9997026775
  10- 3 to 10- 2        18    0.29180088E-03      0.9999944783
  10- 4 to 10- 3        18    0.55123536E-05      0.9999999907
  10- 5 to 10- 4         3    0.92571013E-08      1.0000000000
  10- 6 to 10- 5         1    0.45938944E-10      1.0000000000
  Number of coefficients less than 10^-11 times norm is           57


 @ Excited state no:    9 in symmetry 1  ( A  ) - singlet excitation
 -------------------------------------------------------------------

@ Excitation energy :  0.69644808     au
@                       18.951316     eV;   152852.68     cm-1;   1828.5241     kJ / mol

@ Total energy :       -7.1859539     au

@ Operator label: XDIPLEN ; Transition moment :  1.05443950E-15 au
@ Oscillator strength (LENGTH)   :  5.16227118E-31  (X-polarization)

@ Operator label: YDIPLEN ; Transition moment : -0.10775295     au
@ Oscillator strength (LENGTH)   :  5.39083228E-03  (Y-polarization)

@ Operator label: ZDIPLEN ; Transition moment : -6.35343376E-02 au
@ Oscillator strength (LENGTH)   :  1.87419381E-03  (Z-polarization)
@ Total oscillator strength (LENGTH)   :  7.26502608E-03

 Eigenvector for state no.  9

      Index(conf)                         Z operator          Y operator
      ----------                      --------------      --------------
          18                           -0.2986933669        0.0000000000
          19                           -0.2165904406        0.0000000000
          20                            0.9031464823        0.0000000000
          25                            0.1947632083        0.0000000000

      101 elements with absolute value ≤ 1.00D-01 are not printed.

 Printout of coefficients in interval  3.1623E-01 to  1.0000E+00
 ===============================================================

  Coefficient of CSF no.        20 is      0.90314648    9.03146482E-01
  Orbital          1   3   5
  Spin coupling    2   1  -1

 Printout of coefficients in interval  1.0000E-01 to  3.1623E-01
 ===============================================================

  Coefficient of CSF no.        18 is     -0.29869337   -2.98693367E-01
  Orbital          1   3   4
  Spin coupling    2   1  -1

  Coefficient of CSF no.        19 is     -0.21659044   -2.16590441E-01
  Orbital          1   2   5
  Spin coupling    2   1  -1

  Coefficient of CSF no.        25 is      0.19476321    1.94763208E-01
  Orbital          1   5   6
  Spin coupling    2   1  -1

 Printout of coefficients in interval  1.0000E-01 to  1.0000E-01
 ===============================================================
   ( no coefficients )

 Norm of printed CI vector ..      0.98973542

 Magnitude of CI coefficients
 ============================
 ( Ranges are relative to norm of vector :  1.00E+00 )

  10- 1 to 10- 0         4    0.98973542E+00      0.9897354221
  10- 2 to 10- 1         4    0.10013938E-01      0.9997493598
  10- 3 to 10- 2        17    0.24516400E-03      0.9999945238
  10- 4 to 10- 3        18    0.54584307E-05      0.9999999822
  10- 5 to 10- 4         4    0.17748700E-07      1.0000000000
  10- 6 to 10- 5         1    0.29044820E-10      1.0000000000
  Number of coefficients less than 10^-11 times norm is           57


 @ Excited state no:   10 in symmetry 1  ( A  ) - singlet excitation
 -------------------------------------------------------------------

@ Excitation energy :  0.75158205     au
@                       20.451588     eV;   164953.19     cm-1;   1973.2784     kJ / mol

@ Total energy :       -7.1308199     au

@ Operator label: XDIPLEN ; Transition moment :  7.53005541E-02 au
@ Oscillator strength (LENGTH)   :  2.84106707E-03  (X-polarization)

@ Operator label: YDIPLEN ; Transition moment :  4.01335676E-16 au
@ Oscillator strength (LENGTH)   :  8.07050437E-32  (Y-polarization)

[...]

  Coefficient of CSF no.        70 is      0.76174058    7.61740579E-01
  Orbital          6   2   4
  Spin coupling    2   1  -1

  Coefficient of CSF no.        73 is      0.46308520    4.63085200E-01
  Orbital          6   2   5
  Spin coupling    2   1  -1

 Printout of coefficients in interval  1.0000E-01 to  3.1623E-01
 ===============================================================

  Coefficient of CSF no.        34 is     -0.31113159   -3.11131587E-01
  Orbital          2   4   6
  Spin coupling    2   1  -1

  Coefficient of CSF no.        35 is     -0.18914633   -1.89146328E-01
  Orbital          2   5   6
  Spin coupling    2   1  -1

  Coefficient of CSF no.        71 is      0.19447994    1.94479942E-01
  Orbital          6   3   4
  Spin coupling    2   1  -1

  Coefficient of CSF no.        74 is      0.11823026    1.18230255E-01
  Orbital          6   3   5
  Spin coupling    2   1  -1

 Norm of printed CI vector ..      0.97907665

 Magnitude of CI coefficients
 ============================
 ( Ranges are relative to norm of vector :  1.00E+00 )

  10- 1 to 10- 0         6    0.97907665E+00      0.9790766514
  10- 2 to 10- 1        13    0.20401453E-01      0.9994781045
  10- 3 to 10- 2        17    0.51974020E-03      0.9999978447
  10- 4 to 10- 3        11    0.21512947E-05      0.9999999960
  10- 5 to 10- 4         1    0.39778959E-08      1.0000000000
  Number of coefficients less than 10^-11 times norm is           57


 @ Excited state no:   99 in symmetry 1  ( A  ) - singlet excitation
 -------------------------------------------------------------------

@ Excitation energy :   6.5145173     au
@                       177.26903     eV;   1429771.3     cm-1;   17103.863     kJ / mol

@ Total energy :       -1.3678846     au

@ Operator label: XDIPLEN ; Transition moment : -8.53514253E-18 au
@ Oscillator strength (LENGTH)   :  3.16382564E-34  (X-polarization)

@ Operator label: YDIPLEN ; Transition moment :  3.33406726E-06 au
@ Oscillator strength (LENGTH)   :  4.82769358E-11  (Y-polarization)

@ Operator label: ZDIPLEN ; Transition moment :  1.93609434E-04 au
@ Oscillator strength (LENGTH)   :  1.62796106E-07  (Z-polarization)
@ Total oscillator strength (LENGTH)   :  1.62844383E-07

 Eigenvector for state no. 99

      Index(conf)                         Z operator          Y operator
      ----------                      --------------      --------------
          28                           -0.1177460247        0.0000000000
          44                           -0.1283330855        0.0000000000
          70                            0.2150606624        0.0000000000
          71                           -0.9135651460        0.0000000000
          74                            0.2144611089        0.0000000000
          92                           -0.1273785337        0.0000000000
          93                            0.1024312983        0.0000000000

       98 elements with absolute value ≤ 1.00D-01 are not printed.

 Printout of coefficients in interval  3.1623E-01 to  1.0000E+00
 ===============================================================

  Coefficient of CSF no.        71 is     -0.91356515   -9.13565146E-01
  Orbital          6   3   4
  Spin coupling    2   1  -1

 Printout of coefficients in interval  1.0000E-01 to  3.1623E-01
 ===============================================================

  Coefficient of CSF no.        28 is     -0.11774602   -1.17746025E-01
  Orbital          2   3   4
  Spin coupling    2   1  -1

  Coefficient of CSF no.        44 is     -0.12833309   -1.28333086E-01
  Orbital          3   4   6
  Spin coupling    2   1  -1

  Coefficient of CSF no.        70 is      0.21506066    2.15060662E-01
  Orbital          6   2   4
  Spin coupling    2   1  -1

  Coefficient of CSF no.        74 is      0.21446111    2.14461109E-01
  Orbital          6   3   5
  Spin coupling    2   1  -1

  Coefficient of CSF no.        92 is     -0.12737853   -1.27378534E-01
  Orbital          2   3   4   6
  Spin coupling    1   1  -1  -1

  Coefficient of CSF no.        93 is      0.10243130    1.02431298E-01
  Orbital          2   3   4   6
  Spin coupling    1  -1   1  -1

 Norm of printed CI vector ..      0.98389690

 Magnitude of CI coefficients
 ============================
 ( Ranges are relative to norm of vector :  1.00E+00 )

  10- 1 to 10- 0         7    0.98389690E+00      0.9838969006
  10- 2 to 10- 1        13    0.15720903E-01      0.9996178041
  10- 3 to 10- 2        19    0.38082204E-03      0.9999986261
  10- 4 to 10- 3         7    0.13636673E-05      0.9999999898
  10- 5 to 10- 4         2    0.10211191E-07      1.0000000000
  Number of coefficients less than 10^-11 times norm is           57


 @ Excited state no:  100 in symmetry 1  ( A  ) - singlet excitation
 -------------------------------------------------------------------

@ Excitation energy :   6.5145173     au
@                       177.26903     eV;   1429771.3     cm-1;   17103.863     kJ / mol

@ Total energy :       -1.3678846     au

@ Operator label: XDIPLEN ; Transition moment : -6.14129601E-20 au
@ Oscillator strength (LENGTH)   :  1.63798924E-38  (X-polarization)

@ Operator label: YDIPLEN ; Transition moment :  1.93626282E-04 au
@ Oscillator strength (LENGTH)   :  1.62824442E-07  (Y-polarization)

@ Operator label: ZDIPLEN ; Transition moment :  2.14280089E-06 au
@ Oscillator strength (LENGTH)   :  1.99413530E-11  (Z-polarization)
@ Total oscillator strength (LENGTH)   :  1.62844383E-07

 Eigenvector for state no.100

      Index(conf)                         Z operator          Y operator
      ----------                      --------------      --------------
          30                            0.1184806539        0.0000000000
          45                            0.1291337685        0.0000000000
          71                            0.1885384771        0.0000000000
          73                           -0.2164024474        0.0000000000
          74                            0.9192649704        0.0000000000
          98                            0.1281732611        0.0000000000
          99                           -0.1030703774        0.0000000000

       98 elements with absolute value ≤ 1.00D-01 are not printed.

 Printout of coefficients in interval  3.1623E-01 to  1.0000E+00
 ===============================================================

  Coefficient of CSF no.        74 is      0.91926497    9.19264970E-01
  Orbital          6   3   5
  Spin coupling    2   1  -1

 Printout of coefficients in interval  1.0000E-01 to  3.1623E-01
 ===============================================================

  Coefficient of CSF no.        30 is      0.11848065    1.18480654E-01
  Orbital          2   3   5
  Spin coupling    2   1  -1

  Coefficient of CSF no.        45 is      0.12913377    1.29133769E-01
  Orbital          3   5   6
  Spin coupling    2   1  -1

  Coefficient of CSF no.        71 is      0.18853848    1.88538477E-01
  Orbital          6   3   4
  Spin coupling    2   1  -1

  Coefficient of CSF no.        73 is     -0.21640245   -2.16402447E-01
  Orbital          6   2   5
  Spin coupling    2   1  -1

  Coefficient of CSF no.        98 is      0.12817326    1.28173261E-01
  Orbital          2   3   5   6
  Spin coupling    1   1  -1  -1

  Coefficient of CSF no.        99 is     -0.10307038   -1.03070377E-01
  Orbital          2   3   5   6
  Spin coupling    1  -1   1  -1

 Norm of printed CI vector ..      0.98518995

 Magnitude of CI coefficients
 ============================
 ( Ranges are relative to norm of vector :  1.00E+00 )

  10- 1 to 10- 0         7    0.98518995E+00      0.9851899456
  10- 2 to 10- 1        12    0.14364999E-01      0.9995549444
  10- 3 to 10- 2        19    0.44308952E-03      0.9999980339
  10- 4 to 10- 3         8    0.19581741E-05      0.9999999921
  10- 5 to 10- 4         2    0.78918587E-08      1.0000000000
  Number of coefficients less than 10^-11 times norm is           57


 @ Excited state no:  101 in symmetry 1  ( A  ) - singlet excitation
 -------------------------------------------------------------------

@ Excitation energy :   6.5320724     au
@                       177.74673     eV;   1433624.2     cm-1;   17149.953     kJ / mol

@ Total energy :       -1.3503296     au

@ Operator label: XDIPLEN ; Transition moment :  9.67650439E-18 au
@ Oscillator strength (LENGTH)   :  4.07752585E-34  (X-polarization)

@ Operator label: YDIPLEN ; Transition moment : -2.40310918E-16 au
@ Oscillator strength (LENGTH)   :  2.51481899E-31  (Y-polarization)

@ Operator label: ZDIPLEN ; Transition moment :  2.78373708E-16 au
@ Oscillator strength (LENGTH)   :  3.37455223E-31  (Z-polarization)
@ Total oscillator strength (LENGTH)   :  5.89344875E-31

 Eigenvector for state no.101

      Index(conf)                         Z operator          Y operator
      ----------                      --------------      --------------
          14                           -0.6801199520        0.0000000000
          15                            0.6801199520        0.0000000000
          53                           -0.1614921463        0.0000000000
          63                            0.1614921463        0.0000000000

      101 elements with absolute value ≤ 1.00D-01 are not printed.

 Printout of coefficients in interval  3.1623E-01 to  1.0000E+00
 ===============================================================

  Coefficient of CSF no.        14 is     -0.68011995   -6.80119952E-01
  Orbital          4   6
  Spin coupling    2   2

  Coefficient of CSF no.        15 is      0.68011995    6.80119952E-01
  Orbital          5   6
  Spin coupling    2   2

 Printout of coefficients in interval  1.0000E-01 to  3.1623E-01
 ===============================================================

  Coefficient of CSF no.        53 is     -0.16149215   -1.61492146E-01
  Orbital          4   2   6
  Spin coupling    2   1  -1

  Coefficient of CSF no.        63 is      0.16149215    1.61492146E-01
  Orbital          5   2   6
  Spin coupling    2   1  -1

 Norm of printed CI vector ..      0.97728572

 Magnitude of CI coefficients
 ============================
 ( Ranges are relative to norm of vector :  1.00E+00 )

  10- 1 to 10- 0         4    0.97728572E+00      0.9772857248
  10- 2 to 10- 1         6    0.22653002E-01      0.9999387267
  10- 3 to 10- 2         7    0.58312076E-04      0.9999970388
  10- 4 to 10- 3         7    0.29506484E-05      0.9999999894
  10- 5 to 10- 4         2    0.10477683E-07      0.9999999999
  10- 6 to 10- 5         7    0.10349958E-09      1.0000000000
  Number of coefficients less than 10^-11 times norm is           72


 @ Excited state no:  102 in symmetry 1  ( A  ) - singlet excitation
 -------------------------------------------------------------------

@ Excitation energy :   6.5320724     au
@                       177.74673     eV;   1433624.2     cm-1;   17149.953     kJ / mol

@ Total energy :       -1.3503296     au

@ Operator label: XDIPLEN ; Transition moment : -1.94002309E-18 au
@ Oscillator strength (LENGTH)   :  1.63897951E-35  (X-polarization)

@ Operator label: YDIPLEN ; Transition moment :  2.75472259E-17 au
@ Oscillator strength (LENGTH)   :  3.30457391E-33  (Y-polarization)

@ Operator label: ZDIPLEN ; Transition moment :  1.42452128E-17 au
@ Oscillator strength (LENGTH)   :  8.83685253E-34  (Z-polarization)
@ Total oscillator strength (LENGTH)   :  4.20464896E-33

 Eigenvector for state no.102

      Index(conf)                         Z operator          Y operator
      ----------                      --------------      --------------
          31                           -0.1289419308        0.0000000000
          75                           -0.9618340773        0.0000000000
         102                           -0.1977865170        0.0000000000
         103                            0.1141920988        0.0000000000

      101 elements with absolute value ≤ 1.00D-01 are not printed.

 Printout of coefficients in interval  3.1623E-01 to  1.0000E+00
 ===============================================================

  Coefficient of CSF no.        75 is     -0.96183408   -9.61834077E-01
  Orbital          6   4   5
  Spin coupling    2   1  -1

 Printout of coefficients in interval  1.0000E-01 to  3.1623E-01
 ===============================================================

  Coefficient of CSF no.        31 is     -0.12894193   -1.28941931E-01
  Orbital          2   4   5
  Spin coupling    2   1  -1

  Coefficient of CSF no.       102 is     -0.19778652   -1.97786517E-01
  Orbital          2   4   5   6
  Spin coupling    1   1  -1  -1

  Coefficient of CSF no.       103 is      0.11419210    1.14192099E-01
  Orbital          2   4   5   6
  Spin coupling    1  -1   1  -1

 Norm of printed CI vector ..      0.99391016

 Magnitude of CI coefficients
 ============================
 ( Ranges are relative to norm of vector :  1.00E+00 )

  10- 1 to 10- 0         4    0.99391016E+00      0.9939101555
  10- 2 to 10- 1         2    0.60269436E-02      0.9999370991
  10- 3 to 10- 2         9    0.62648896E-04      0.9999997480
  10- 4 to 10- 3         4    0.23154528E-06      0.9999999795
  10- 5 to 10- 4         4    0.20287896E-07      0.9999999998
  10- 6 to 10- 5        10    0.20040584E-09      1.0000000000
  Number of coefficients less than 10^-11 times norm is           72


 @ Excited state no:  103 in symmetry 1  ( A  ) - singlet excitation
 -------------------------------------------------------------------

@ Excitation energy :   6.5351702     au
@                       177.83103     eV;   1434304.1     cm-1;   17158.087     kJ / mol

@ Total energy :       -1.3472317     au

@ Operator label: XDIPLEN ; Transition moment :  3.84522596E-05 au
@ Oscillator strength (LENGTH)   :  6.44183173E-09  (X-polarization)

@ Operator label: YDIPLEN ; Transition moment : -5.94079921E-16 au
@ Oscillator strength (LENGTH)   :  1.53764257E-30  (Y-polarization)

@ Operator label: ZDIPLEN ; Transition moment :  4.58500337E-16 au
@ Oscillator strength (LENGTH)   :  9.15893472E-31  (Z-polarization)
@ Total oscillator strength (LENGTH)   :  6.44183173E-09

 Eigenvector for state no.103

      Index(conf)                         Z operator          Y operator
      ----------                      --------------      --------------
          12                           -0.8242085594        0.0000000000
          13                            0.1926997790        0.0000000000
          14                            0.2773533665        0.0000000000
          15                            0.2773533665        0.0000000000
          68                           -0.3378498575        0.0000000000

      100 elements with absolute value ≤ 1.00D-01 are not printed.

 Printout of coefficients in interval  3.1623E-01 to  1.0000E+00
 ===============================================================

  Coefficient of CSF no.        12 is     -0.82420856   -8.24208559E-01
  Orbital          2   6
  Spin coupling    2   2

  Coefficient of CSF no.        68 is     -0.33784986   -3.37849858E-01
  Orbital          6   2   3
  Spin coupling    2   1  -1

 Printout of coefficients in interval  1.0000E-01 to  3.1623E-01
 ===============================================================

  Coefficient of CSF no.        13 is      0.19269978    1.92699779E-01
  Orbital          3   6
  Spin coupling    2   2

  Coefficient of CSF no.        14 is      0.27735337    2.77353367E-01
  Orbital          4   6
  Spin coupling    2   2

  Coefficient of CSF no.        15 is      0.27735337    2.77353367E-01
  Orbital          5   6
  Spin coupling    2   2

 Norm of printed CI vector ..      0.98444526

 Magnitude of CI coefficients
 ============================
 ( Ranges are relative to norm of vector :  1.00E+00 )

  10- 1 to 10- 0         5    0.98444526E+00      0.9844452604
  10- 2 to 10- 1        15    0.15362109E-01      0.9998073691
  10- 3 to 10- 2        10    0.18890853E-03      0.9999962777
  10- 4 to 10- 3        11    0.37223447E-05      1.0000000000
  Number of coefficients less than 10^-11 times norm is           64


 @ Excited state no:  104 in symmetry 1  ( A  ) - singlet excitation
 -------------------------------------------------------------------

@ Excitation energy :   6.6193635     au
@                       180.12204     eV;   1452782.4     cm-1;   17379.136     kJ / mol

@ Total energy :       -1.2630384     au

@ Operator label: XDIPLEN ; Transition moment : -5.95067956E-05 au
@ Oscillator strength (LENGTH)   :  1.56263700E-08  (X-polarization)

@ Operator label: YDIPLEN ; Transition moment : -3.42134623E-16 au
@ Oscillator strength (LENGTH)   :  5.16557919E-31  (Y-polarization)

@ Operator label: ZDIPLEN ; Transition moment :  4.91823866E-17 au
@ Oscillator strength (LENGTH)   :  1.06744172E-32  (Z-polarization)
@ Total oscillator strength (LENGTH)   :  1.56263700E-08

 Eigenvector for state no.104

      Index(conf)                         Z operator          Y operator
      ----------                      --------------      --------------
          12                            0.4570497478        0.0000000000
          13                            0.3465071518        0.0000000000
          14                            0.5463650199        0.0000000000
          15                            0.5463650199        0.0000000000
          53                            0.1463975117        0.0000000000
          63                            0.1463975117        0.0000000000

       99 elements with absolute value ≤ 1.00D-01 are not printed.

 Printout of coefficients in interval  3.1623E-01 to  1.0000E+00
 ===============================================================

  Coefficient of CSF no.        12 is      0.45704975    4.57049748E-01
  Orbital          2   6
  Spin coupling    2   2

  Coefficient of CSF no.        13 is      0.34650715    3.46507152E-01
  Orbital          3   6
  Spin coupling    2   2

  Coefficient of CSF no.        14 is      0.54636502    5.46365020E-01
  Orbital          4   6
  Spin coupling    2   2

  Coefficient of CSF no.        15 is      0.54636502    5.46365020E-01
  Orbital          5   6
  Spin coupling    2   2

 Printout of coefficients in interval  1.0000E-01 to  3.1623E-01
 ===============================================================

  Coefficient of CSF no.        53 is      0.14639751    1.46397512E-01
  Orbital          4   2   6
  Spin coupling    2   1  -1

  Coefficient of CSF no.        63 is      0.14639751    1.46397512E-01
  Orbital          5   2   6
  Spin coupling    2   1  -1

 Norm of printed CI vector ..      0.96885561

 Magnitude of CI coefficients
 ============================
 ( Ranges are relative to norm of vector :  1.00E+00 )

  10- 1 to 10- 0         6    0.96885561E+00      0.9688556111
  10- 2 to 10- 1        14    0.30908670E-01      0.9997642814
  10- 3 to 10- 2        14    0.23199171E-03      0.9999962731
  10- 4 to 10- 3         6    0.37205624E-05      0.9999999936
  10- 5 to 10- 4         1    0.63679068E-08      1.0000000000
  Number of coefficients less than 10^-11 times norm is           64


 Time used in polarization propagator calculation is      0.11 CPU seconds for symmetry 1

  Total CPU  time used in RESPONSE:   0.13 seconds
  Total wall time used in RESPONSE:   0.56 seconds


                   .-------------------------------------------.
                   | End of Dynamic Property Section (RESPONS) |
                   `-------------------------------------------'

  Total CPU  time used in DALTON:   0.24 seconds
  Total wall time used in DALTON:   1.59 seconds

 NOTE:    1 warnings have been issued.
 Check output, result, and error files for "WARNING".

 
     Date and time (Linux)  : Mon Jul  6 16:39:44 2026
     Host name              : n-62-11-68                              
