

     ************************************************************************
     *************** Dalton - An Electronic Structure Program ***************
     ************************************************************************

    This is output from DALTON release Dalton2024.0-dev (2024)
         ( Web site: http://daltonprogram.org )

   ----------------------------------------------------------------------------

    NOTE:
     
    Dalton is an experimental code for the evaluation of molecular
    properties using (MC)SCF, DFT, CI, and CC wave functions.
    The authors accept no responsibility for the performance of
    the code or for the correctness of the results.
     
    The code (in whole or part) is provided under a licence and
    is not to be reproduced for further distribution without
    the written permission of the authors or their representatives.
     
    See the home page "http://daltonprogram.org" for further information.
     
    If results obtained with this code are published,
    the appropriate citations would be both of:
     
       K. Aidas, C. Angeli, K. L. Bak, V. Bakken,
       R. Bast, L. Boman, O. Christiansen, R. Cimiraglia,
       S. Coriani, P. Dahle, E. K. Dalskov, U. Ekstroem,
       T. Enevoldsen, J. J. Eriksen, P. Ettenhuber, B. Fernandez,
       L. Ferrighi, H. Fliegl, L. Frediani, K. Hald, A. Halkier,
       C. Haettig, H. Heiberg, T. Helgaker, A. C. Hennum,
       H. Hettema, E. Hjertenaes, S. Hoest, I.-M. Hoeyvik,
       M. F. Iozzi, B. Jansik, H. J. Aa. Jensen, D. Jonsson,
       P. Joergensen, J. Kauczor, S. Kirpekar,
       T. Kjaergaard, W. Klopper, S. Knecht, R. Kobayashi, H. Koch,
       J. Kongsted, A. Krapp, K. Kristensen, A. Ligabue,
       O. B. Lutnaes, J. I. Melo, K. V. Mikkelsen, R. H. Myhre,
       C. Neiss, C. B. Nielsen, P. Norman, J. Olsen,
       J. M. H. Olsen, A. Osted, M. J. Packer, F. Pawlowski,
       T. B. Pedersen, P. F. Provasi, S. Reine, Z. Rinkevicius,
       T. A. Ruden, K. Ruud, V. Rybkin, P. Salek, C. C. M. Samson,
       A. Sanchez de Meras, T. Saue, S. P. A. Sauer,
       B. Schimmelpfennig, K. Sneskov, A. H. Steindal,
       K. O. Sylvester-Hvid, P. R. Taylor, A. M. Teale,
       E. I. Tellgren, D. P. Tew, A. J. Thorvaldsen, L. Thoegersen,
       O. Vahtras, M. A. Watson, D. J. D. Wilson, M. Ziolkowski
       and H. Agren,
       "The Dalton quantum chemistry program system",
       WIREs Comput. Mol. Sci. 2014, 4:269-284 (doi: 10.1002/wcms.1172)
     
    and
     
       Dalton, a molecular electronic structure program,
       Release Dalton2024.0-dev (2024), see http://daltonprogram.org
   ----------------------------------------------------------------------------

    Authors in alphabetical order (Major contribution(s) in parenthesis):

  Kestutis Aidas,              Vilnius University,        Lithuania   (QM/MM)
  Celestino Angeli,            University of Ferrara,     Italy       (NEVPT2)
  Juan J. Aucar,               Northeast National UniversiArgentina   (LRESC, Relativistic Effects on EFG)
  Keld L. Bak,                 UNI-C,                     Denmark     (AOSOPPA, non-adiabatic coupling, magnetic properties)
  Vebjoern Bakken,             University of Oslo,        Norway      (DALTON; geometry optimizer, symmetry detection)
  Radovan Bast,                UiT The Arctic U. of NorwayNorway      (DALTON installation and execution frameworks)
  Pablo Baudin,                University of Valencia,    Spain       (Cholesky excitation energies)
  Linus Boman,                 NTNU,                      Norway      (Cholesky decomposition and subsystems)
  Bruno N. Cabral Tenorio,     Technical Univ. of Denmark,Denmark     (Lanczos-based CC methods)
  Ove Christiansen,            Aarhus University,         Denmark     (CC module)
  Renzo Cimiraglia,            University of Ferrara,     Italy       (NEVPT2)
  Sonia Coriani,               Technical Univ. of Denmark,Denmark     (CC and RESPONS modules)
  Janusz Cukras,               University of Warsaw,      Poland      (MChD in RESPONS)
  Paal Dahle,                  University of Oslo,        Norway      (Parallelization)
  Erik K. Dalskov,             UNI-C,                     Denmark     (SOPPA)
  Thomas Enevoldsen,           Univ. of Southern Denmark, Denmark     (SOPPA)
  Janus J. Eriksen,            Aarhus University,         Denmark     (Polarizable embedding, TDA)
  Rasmus Faber,                Technical Univ. of Denmark,Denmark     (Vib.avg. NMR w. SOPPA, parallel AO-SOPPA, CVS-CC and EOMCC)
  Tobias Fahleson,             KTH Stockholm,             Sweden      (Damped cubic response)
  Berta Fernandez,             U. of Santiago de CompostelSpain       (Doublet spin, ESR in RESPONS)
  Lara Ferrighi,               Aarhus University,         Denmark     (PCM Cubic response)
  Heike Fliegl,                University of Oslo,        Norway      (CCSD(R12))
  Luca Frediani,               UiT The Arctic U. of NorwayNorway      (PCM)
  Emmanuel Fromager,           Univ. Strasbourg,          France      (MC-srDFT)
  Bin Gao,                     UiT The Arctic U. of NorwayNorway      (Gen1Int library)
  Andre S. P. Gomes,           CNRS/Universite de Lille,  France      (Frozen density embedding)
  Christof Haettig,            Ruhr-University Bochum,    Germany     (CC module)
  Kasper Hald,                 Aarhus University,         Denmark     (CC module)
  Asger Halkier,               Aarhus University,         Denmark     (CC module)
  Frederik Beyer Hansen,       University of Copenhagen,  Denmark     (Parallel AO-SOPPA)
  Erik D. Hedegaard,           Univ. of Southern Denmark, Denmark     (Polarizable embedding, QM/MM, and MC-srDFT)
  Hanne Heiberg,               University of Oslo,        Norway      (Geometry analysis, selected one-electron integrals)
  Trygve Helgaker,             University of Oslo,        Norway      (DALTON; ABACUS, ERI, DFT modules, London, and much more)
  Alf Christian Hennum,        University of Oslo,        Norway      (Parity violation)
  Hinne Hettema,               University of Auckland,    New Zealand (Quadratic response in RESPONS; SIRIUS supersymmetry)
  Andreas E. Hillers-Bendtsen, University of Copenhagen,  Denmark     (MP3)
  Eirik Hjertenaes,            NTNU,                      Norway      (Cholesky decomposition)
  Nicolai Machholdt Hoeyer,    Aarhus University,         Denmark     (MP3)
  Pi A. B. Haase,              University of Copenhagen,  Denmark     (Triplet AO-SOPPA)
  Maria Francesca Iozzi,       University of Oslo,        Norway      (RPA)
  Christoph Jacob,             TU Braunschweig            Germany     (Frozen density embedding)
  Brano Jansik,                Technical Univ. of Ostrava Czech Rep.  (DFT cubic response)
  Hans Joergen Aa. Jensen,     Univ. of Southern Denmark, Denmark     (DALTON; SIRIUS, RESPONS, ABACUS, MC-srDFT, and much more)
  Dan Jonsson,                 UiT The Arctic U. of NorwayNorway      (Cubic response in RESPONS module)
  Poul Joergensen,             Aarhus University,         Denmark     (RESPONS, ABACUS, and CC modules)
  Maciej Kaminski,             University of Warsaw,      Poland      (CPPh in RESPONS)
  Joanna Kauczor,              Linkoeping University,     Sweden      (Complex polarization propagator (CPP) module)
  Sheela Kirpekar,             Univ. of Southern Denmark, Denmark     (Mass-velocity & Darwin integrals)
  Frederik Oersted Kjeldal,    Technical Univ. of Denmark,Denmark     (MP3)
  Erik Kjellgren,              Univ. of Southern Denmark, Denmark     (MC-srDFT)
  Wim Klopper,                 KIT Karlsruhe,             Germany     (R12 code in CC, SIRIUS, and ABACUS modules)
  Stefan Knecht,               ETH Zurich,                Switzerland (Parallel CI and MCSCF, MC-srDFT)
  Rika Kobayashi,              Australian National Univ., Australia   (DIIS in CC, London in MCSCF)
  Henrik Koch,                 NTNU,                      Norway      (CC module, Cholesky decomposition)
  Jacob Kongsted,              Univ. of Southern Denmark, Denmark     (Polarizable embedding, polarizable density embedding, QM/MM)
  Andrea Ligabue,              University of Modena,      Italy       (CTOCD, AOSOPPA)
  Nanna H. List,               Univ. of Southern Denmark, Denmark     (Polarizable embedding)
  Ola B. Lutnaes,              University of Oslo,        Norway      (DFT Hessian)
  Juan I. Melo,                University of Buenos Aires,Argentina   (LRESC, Relativistic Effects on NMR Shieldings)
  Kurt V. Mikkelsen,           University of Copenhagen,  Denmark     (MC-SCRF, QM/MM, and MP3)
  Rolf H. Myhre,               NTNU,                      Norway      (Subsystems and CC3)
  Christian Neiss,             Univ. Erlangen-Nuernberg,  Germany     (CCSD(R12))
  Christian B. Nielsen,        University of Copenhagen,  Denmark     (QM/MM)
  Patrick Norman,              KTH Stockholm,             Sweden      (Cubic response and complex frequency response in RESPONS)
  Jeppe Olsen,                 Aarhus University,         Denmark     (SIRIUS CI/density modules)
  Jogvan Magnus H. Olsen,      Aarhus University,         Denmark     (Polarizable embedding and polarizable density embedding)
  Anders Osted,                Copenhagen University,     Denmark     (QM/MM)
  Martin J. Packer,            University of Sheffield,   UK          (SOPPA)
  Filip Pawlowski,             Kazimierz Wielki UniversityPoland      (CC3)
  Morten N. Pedersen,          Univ. of Southern Denmark, Denmark     (Polarizable embedding)
  Thomas B. Pedersen,          University of Oslo,        Norway      (Cholesky decomposition)
  Patricio F. Provasi,         University of Northeastern,Argentina   (Analysis of coupling constants in localized orbitals)
  Peter Reinholdt,             Univ. of Southern Denmark, Denmark     (Polarizable embedding and polarizable density embedding)
  Zilvinas Rinkevicius,        KTH Stockholm,             Sweden      (open-shell DFT, ESR)
  Elias Rudberg,               KTH Stockholm,             Sweden      (DFT grid and basis info)
  Torgeir A. Ruden,            University of Oslo,        Norway      (Numerical derivatives in ABACUS)
  Kenneth Ruud,                UiT The Arctic U. of NorwayNorway      (DALTON; ABACUS magnetic properties and much more)
  Pawel Salek,                 KTH Stockholm,             Sweden      (DALTON; DFT code)
  Claire C. M. Samson,         University of Karlsruhe    Germany     (Boys localization, r12 integrals in ERI)
  Alfredo Sanchez de Meras,    University of Valencia,    Spain       (CC module, Cholesky decomposition)
  Trond Saue,                  Paul Sabatier University,  France      (direct Fock matrix construction)
  Stephan P. A. Sauer,         University of Copenhagen,  Denmark     (SOPPA(CCSD), SOPPA prop., AOSOPPA, vibrational g-factors)
  Bernd Schimmelpfennig,       Forschungszentrum KarlsruheGermany     (AMFI module)
  Anna K. Schnack-Petersen,    University of Copenhagen,  Denmark     (RPA(D) and HRPA(D) properties in AOSOPPA)
  Kristian Sneskov,            Aarhus University,         Denmark     (Polarizable embedding, QM/MM)
  Arnfinn H. Steindal,         UiT The Arctic U. of NorwayNorway      (parallel QM/MM, polarizable embedding)
  Casper Steinmann,            Aalborg University,        Denmark     (QFIT, polarizable embedding)
  K. O. Sylvester-Hvid,        University of Copenhagen,  Denmark     (MC-SCRF)
  Peter R. Taylor,             VLSCI/Univ. of Melbourne,  Australia   (Symmetry handling ABACUS, integral transformation)
  Andrew M. Teale,             University of Nottingham,  England     (DFT-AC, DFT-D)
  David P. Tew,                University of Bristol,     England     (CCSD(R12))
  Julien Toulouse,             Sorbonne Univ.,            France      (MC-srDFT)
  Olav Vahtras,                KTH Stockholm,             Sweden      (Triplet response, spin-orbit, ESR, TDDFT, open-shell DFT)
  Lucas Visscher,              Vrije Universiteit AmsterdaNetherlands (Frozen density embedding)
  David J. Wilson,             La Trobe University,       Australia   (DFT Hessian and DFT magnetizabilities)
  Luna Zamok,                  University of Copenhagen,  Denmark     (Block Lanczos RPA solver in SOPPA module)
  Hans Agren,                  KTH Stockholm,             Sweden      (SIRIUS module, RESPONS, MC-SCRF solvation)
 --------------------------------------------------------------------------------

     Date and time (Linux)  : Tue Jul  7 17:01:39 2026
     Host name              : n-62-11-61                              

 * Work memory size             :   512000000 =  3.815 gigabytes.

 * Directories for basis set searches:
   1) /work3/jochar/DaltonTests
   2) /zhome/d7/7/119775/My_Codes/Dalton_Release/dalton/build_omp_nov24/basis


Compilation information
-----------------------

 Who compiled             | soco
 Host                     | hpclogin1
 System                   | Linux-6.1.112-1.el9.elrepo.x86_64
 CMake generator          | Unix Makefiles
 Processor                | x86_64
 64-bit integers          | OFF
 MPI                      | OFF
 Fortran compiler         | /appl/intel/2023.2.0.49397/compiler/2023.2.0/linux
                          | /bin/intel64/ifort
 Fortran compiler version | ifort (IFORT) 2021.10.0 20230609
 C compiler               | /appl/intel/2023.2.0.49397/compiler/2023.2.0/linux
                          | /bin/intel64/icc
 C compiler version       | icc (ICC) 2021.10.0 20230609
 C++ compiler             | /appl/intel/2023.2.0.49397/compiler/2023.2.0/linux
                          | /bin/intel64/icpc
 C++ compiler version     | icpc (ICC) 2021.10.0 20230609
 Static linking           | OFF
 Last Git revision        | a531ac4fbf115ebda1c90140ce3fd6aa236a2033
 Git branch               | master
 Configuration time       | 2024-11-14 11:23:30.470039

 * Sequential calculation.


   Content of the .dal input file
 ----------------------------------

**DALTON INPUT
.RUN WAVE FUNCTIONS   !tipo di calcolo
.RUN RESPONSE
**INTEGRALS
.DIPLEN               !integrali dell'operatore dipolo elettrico
**WAVE FUNCTION
.HF
.CI
!*PRINT
!.PRINTL
!   0 11
*SCF INP              !parte da Hartree-Fock
.DOUBLY OCCUPIED
3
.THRESH               !soglia di convergenza
 1.0D-10
*CONFIGURATION INPUT
.SPIN MULTIPLICITY
1
.SYMMETRY
1
.INACTIVE ORBITALS !the inner electrons are kept frozen
1
.CAS SPACE
6
.ELECTRONS
4
**RESPONS
*LINEAR
.THCLR
1.0d-9
.DIPLEN
.SINGLE RESIDUE
.ROOTS
300
**END OF INPUT


   Content of the .mol file
 ----------------------------

BASIS
STO-3G
test VQE
dalton test
Atomtypes=2 Angstrom Nosymmetry
Charge=4.0 Atoms=1
Be    0.0000000000000000  0.0000000000000000  0.0
Charge=1.0 Atoms=2
H     1.3300000000000000  0.0000000000000000  0.0
H    -1.3300000000000000  0.0000000000000000  0.0


       *******************************************************************
       *********** Output from DALTON general input processing ***********
       *******************************************************************

 --------------------------------------------------------------------------------
   Overall default print level:    0
   Print level for DALTON.STAT:    1

    HERMIT 1- and 2-electron integral sections will be executed
    "Old" integral transformation used (limited to max 255 basis functions)
    Wave function sections will be executed (SIRIUS module)
    Dynamic molecular response properties section will be executed (RESPONSE module)
 --------------------------------------------------------------------------------


   ****************************************************************************
   *************** Output of molecule and basis set information ***************
   ****************************************************************************


    The two title cards from your ".mol" input:
    --------------------------------------------------------------------------------
 1: test VQE
 2: dalton test
    --------------------------------------------------------------------------------

  Coordinates are entered in Angstrom and converted to atomic units.
          - Conversion factor : 1 bohr = 0.52917721 A

  Atomic type no.    1
  --------------------
  Nuclear charge:   4.00000
  Number of symmetry independent centers:    1
  Number of basis sets to read;    2
  Basis set file used for this atomic type with Z =   4 :
     "/zhome/d7/7/119775/My_Codes/Dalton_Release/dalton/build_omp_nov24/basis/STO-3G"

  Atomic type no.    2
  --------------------
  Nuclear charge:   1.00000
  Number of symmetry independent centers:    2
  Number of basis sets to read;    2
  Basis set file used for this atomic type with Z =   1 :
     "/zhome/d7/7/119775/My_Codes/Dalton_Release/dalton/build_omp_nov24/basis/STO-3G"


                         SYMGRP: Point group information
                         -------------------------------

@    Point group: C1 


                                 Isotopic Masses
                                 ---------------

                           Be          9.012183
                           H           1.007825
                           H           1.007825

                       Total mass:    11.027833 amu
                       Natural abundance:  99.970 %

 Center-of-mass coordinates (a.u.):    0.000000    0.000000    0.000000
 Center-of-mass coordinates (Angs):    0.000000    0.000000    0.000000


  Atoms and basis sets
  --------------------

  Number of atom types :    2
  Total number of atoms:    3

  Basis set used is "STO-3G" from the basis set library.

  label    atoms   charge   prim   cont     basis
  ----------------------------------------------------------------------
  Be          1    4.0000    15     5      [6s3p|2s1p]                                        
  H           2    1.0000     3     1      [3s|1s]                                            
  ----------------------------------------------------------------------
  total:      3    6.0000    21     7
  ----------------------------------------------------------------------

  Threshold for neglecting AO integrals:  1.00D-12


  Cartesian Coordinates (a.u.)
  ----------------------------

  Total number of coordinates:    9
  Be      :     1  x   0.0000000000    2  y   0.0000000000    3  z   0.0000000000
  H       :     4  x   2.5133357462    5  y   0.0000000000    6  z   0.0000000000
  H       :     7  x  -2.5133357462    8  y   0.0000000000    9  z   0.0000000000


   Interatomic separations (in Angstrom):
   --------------------------------------

            Be          H           H     
            ------      ------      ------
 Be    :    0.000000
 H     :    1.330000    0.000000
 H     :    1.330000    2.660000    0.000000


  Max    interatomic separation is    2.6600 Angstrom (    5.0267 Bohr)
  between atoms    3 and    2, "H     " and "H     ".

  Min HX interatomic separation is    1.3300 Angstrom (    2.5133 Bohr)


  Bond distances (Angstrom):
  --------------------------

                  atom 1     atom 2       distance
                  ------     ------       --------
  bond distance:  H          Be           1.330000
  bond distance:  H          Be           1.330000


  Bond angles (degrees):
  ----------------------

                  atom 1     atom 2     atom 3         angle
                  ------     ------     ------         -----
  bond angle:     H          Be         H            180.000




 Principal moments of inertia (u*A**2) and principal axes
 --------------------------------------------------------

   IA       0.000000          1.000000    0.000000    0.000000
   IB       3.565483          0.000000    1.000000    0.000000
   IC       3.565483          0.000000    0.000000    1.000000


 Rotational constants
 --------------------

@    The molecule is linear.

               B =       141742.08 MHz     (    4.728007 cm-1)


@  Nuclear repulsion energy :    3.381959617895 Hartree


                     .---------------------------------------.
                     | Starting in Integral Section (HERMIT) |
                     `---------------------------------------'



 ***************************************************************************************
 ****************** Output from **INTEGRALS input processing (HERMIT) ******************
 ***************************************************************************************



    *************************************************************************
    ****************** Output from HERMIT input processing ******************
    *************************************************************************


 Default print level:        1

 Calculation of one- and two-electron Hamiltonian integrals.

 The following one-electron property integrals are calculated as requested:
          - overlap integrals
          - dipole length integrals

 Center of mass  (bohr):      0.000000000000      0.000000000000      0.000000000000
 Operator center (bohr):      0.000000000000      0.000000000000      0.000000000000
 Gauge origin    (bohr):      0.000000000000      0.000000000000      0.000000000000
 Dipole origin   (bohr):      0.000000000000      0.000000000000      0.000000000000

Calculation of 2-electron integrals are postponed until they are needed.


     ************************************************************************
     ************************** Output from HERINT **************************
     ************************************************************************



                      Nuclear contribution to dipole moments
                      --------------------------------------

                 au               Debye          C m (/(10**-30)

      x      0.00000000         0.00000000         0.00000000
      y      0.00000000         0.00000000         0.00000000
      z      0.00000000         0.00000000         0.00000000


  Total CPU  time used in HERMIT:   0.01 seconds
  Total wall time used in HERMIT:   0.05 seconds


                        .----------------------------------.
                        | End of Integral Section (HERMIT) |
                        `----------------------------------'



                   .--------------------------------------------.
                   | Starting in Wave Function Section (SIRIUS) |
                   `--------------------------------------------'


     WARNING  Reference state is required for CI response and CI-NO
     WARNING  ".STATE" was not specified for "*CI INPUT",
     WARNING  the reference state is set to be state no.  1

 *** Output from Huckel module :

     Using EWMO model:          T
     Using EHT  model:          F
     Number of Huckel orbitals each symmetry:    7

 EWMO - Energy Weighted Maximum Overlap - is a Huckel type method,
        which normally is better than Extended Huckel Theory.
 Reference: Linderberg and Ohrn, Propagators in Quantum Chemistry (Wiley, 1973)

 Huckel EWMO eigenvalues for symmetry :  1
           -4.742490      -0.737104      -0.620322      -0.206000      -0.206000
           -0.103312      -0.044772

 **********************************************************************
 *SIRIUS* a direct, restricted step, second order MCSCF program       *
 **********************************************************************

 
     Date and time (Linux)  : Tue Jul  7 17:01:40 2026
     Host name              : n-62-11-61                              

 Title lines from ".mol" input file:
     test VQE
     dalton test

 Print level on unit LUPRI =   2 is   0
 Print level on unit LUW4  =   2 is   5

@    Configuration interaction calculation.

@    CI response calculation.

@    CI type: user specified active spaces.
@              Type: complete active space calculation (CAS).

@    This is a combination run starting with
@              a restricted, closed shell Hartree-Fock calculation


 Initial molecular orbitals are obtained according to
 ".MOSTART EWMO  " input option

     Wave function specification
     ============================
@    Wave function type        --- CI ---
@    Number of closed shell electrons           2
@    Number of electrons in active shells       4
@    Total charge of the molecule               0

@    Spin multiplicity and 2 M_S                1         0
@    Total number of symmetries                 1 (point group: C1 )
@    Reference state symmetry                   1 (irrep name : A  )

     Orbital specifications
     ======================
@    Abelian symmetry species          All |    1
@                                          |  A  
                                       --- |  ---
@    Inactive orbitals                   1 |    1
@    Active orbitals                     6 |    6
@    Secondary orbitals                  0 |    0
@    Total number of orbitals            7 |    7
@    Number of basis functions           7 |    7

      -- Initial occupation of symmetries is determined from user input.                      
      -- Initial occupation of symmetries is :
@    Occupied SCF orbitals               3 |    3

     Optimization information
     ========================
@    Number of configurations               105
@    Number of orbital rotations              0
     ------------------------------------------
@    Total number of variables              105

     Maximum number of CI iterations         25
     Threshold for CI convergence      1.00D-05
     Number of CI roots to converge           1

@    Reference state in CI response calculation :       1


 ***********************************************
 ***** DIIS acceleration of SCF iterations *****
 ***********************************************

 C1-DIIS algorithm; max error vectors =    8

 Iter      Total energy        Error norm    Delta(E)  DIIS dim.
 -----------------------------------------------------------------------------

Calculating AOSUPINT

---> (Re)generating AOTWOINT


     ************************************************************************
     ************************** Output from HERINT **************************
     ************************************************************************


 Threshold for neglecting two-electron integrals:  1.00D-12
 HERMIT - Number of two-electron integrals written:         166 ( 40.9% )
 HERMIT - Megabytes written:                              0.137

     (Precalculated AO two-electron integrals are transformed to P-supermatrix elements.
      Threshold for discarding integrals :  1.00D-12 )

@  1    -15.5145759008        6.49603D-01   -1.55D+01    1
      Virial theorem: -V/T =      1.975520
@    MULPOP   Be      0.65; H      -0.32; H      -0.32; 
   1  Level shift: doubly occupied orbital energies shifted by -2.00D-01
 -----------------------------------------------------------------------------
@  2    -15.5579306641        1.43159D-01   -4.34D-02    2
      Virial theorem: -V/T =      1.986257
@    MULPOP   Be      0.21; H      -0.10; H      -0.10; 
   2  Level shift: doubly occupied orbital energies shifted by -5.00D-02
 -----------------------------------------------------------------------------
@  3    -15.5600948861        5.75294D-03   -2.16D-03    3
      Virial theorem: -V/T =      1.987895
@    MULPOP   Be      0.09; H      -0.05; H      -0.05; 
   3  Level shift: doubly occupied orbital energies shifted by -1.25D-02
 -----------------------------------------------------------------------------
@  4    -15.5600983837        8.86200D-05   -3.50D-06    4
      Virial theorem: -V/T =      1.987937
@    MULPOP   Be      0.09; H      -0.04; H      -0.04; 
 -----------------------------------------------------------------------------
@  5    -15.5600983843        6.66856D-06   -5.65D-10    5
      Virial theorem: -V/T =      1.987937
@    MULPOP   Be      0.09; H      -0.04; H      -0.04; 
 -----------------------------------------------------------------------------
@  6    -15.5600983843        1.37662D-08   -6.20D-12    6
      Virial theorem: -V/T =      1.987937
@    MULPOP   Be      0.09; H      -0.04; H      -0.04; 
 -----------------------------------------------------------------------------
@  7    -15.5600983843        5.82242D-10   -3.55D-15    7
      Virial theorem: -V/T =      1.987937
@    MULPOP   Be      0.09; H      -0.04; H      -0.04; 
 -----------------------------------------------------------------------------
@  8    -15.5600983843        4.55102D-10    3.55D-15    8
      Virial theorem: -V/T =      1.987937
@    MULPOP   Be      0.09; H      -0.04; H      -0.04; 
 -----------------------------------------------------------------------------
@  9    -15.5600983843        5.92420D-09    0.00D+00    8
      Virial theorem: -V/T =      1.987937
@    MULPOP   Be      0.09; H      -0.04; H      -0.04; 
 -----------------------------------------------------------------------------
@ 10    -15.5600983843        1.06280D-12   -7.11D-15    8

@ *** DIIS converged in  10 iterations !
@     Converged SCF energy, gradient:    -15.560098384318    1.06D-12
    - total time used in SIRFCK :              0.00 seconds

 --- Writing SIRIFC interface file

--------------------------------------------------------------------------------


     .--------------------------------------------------.
     | HF-SCF KT IPs [a.u. & eV] from Koopmans' theorem |
     `--------------------------------------------------'


     HF-SCF KT symmetry 1 ( A  ) in point group C1  -- 3 principal poles with pole strength 1

   ============  ============  ============
       4.519610      0.457702      0.421615
     122.984843     12.454710     11.472732
   ============  ============  ============

@ Summary of HF-SCF KT ionization potentials [eV]:

@ Symmetry 1 (A  ) :   122.985      12.455      11.473

  === End of HF-SCF KT output ===
--------------------------------------------------------------------------------


 CPU and wall time for SCF :       0.043       0.586


 ----- Output from SIRIUS CI module (CICTL) -----




 2-el. integral transformation level 0: Total CPU and WALL times (sec)       0.006       0.029

 (CIST1) 8 lowest diagonal elements:

 Element no. Config.no.    Active energy      Total energy

         1 :          1     -3.9111134311    -15.5600983843
         2 :         16     -3.6196324933    -15.2686174465
         3 :         17     -3.6196324933    -15.2686174465
         4 :         26     -3.5614022980    -15.2103872512
         5 :         27     -3.5614022980    -15.2103872512
         6 :         19     -3.3522063264    -15.0011912796
         7 :         29     -3.3108419726    -14.9598269258
         8 :         76     -3.2240423157    -14.8730272689

Lowest 1 elements are used as separate start CI vectors.


 Convergence threshold for CI optimization :     0.00001000


 CI root     eigenvalue        residual norm

    1      -15.5600983843        0.2162347055

 CI root     eigenvalue        residual norm

    1      -15.5931165201        0.0483519056

 CI root     eigenvalue        residual norm

    1      -15.5946528272        0.0124701435

 CI root     eigenvalue        residual norm

    1      -15.5947653835        0.0044178681

 CI root     eigenvalue        residual norm

    1      -15.5947777636        0.0011516060

 CI root     eigenvalue        residual norm

    1      -15.5947783885        0.0001604289

 CI root     eigenvalue        residual norm

    1      -15.5947784022        0.0000242951

 CI root     eigenvalue        residual norm

    1      -15.5947784025        0.0000029585 converged

 The requested root number is now converged.


 *** CI converged in  8 iterations.



@ Final CI energies and residuals in symmetry 1 (irrep A  )
@    1      -15.594778402541227       2.96D-06

 Writing SIRIFC interface file for CI root no. 1

 CPU and wall time for CI :       0.015       0.094


                       .-----------------------------------.
                       | --- Final results from SIRIUS --- |
                       `-----------------------------------'


@    Spin multiplicity:           1
@    Spatial symmetry:            1 ( irrep  A   in C1  )
@    Total charge of molecule:    0

@    This was a CI calculation.
@    State number:                1

@    Final CI energy:             -15.594778402541
@    Nuclear repulsion:             3.381959617895
@    Electronic energy:           -18.976738020436

@    Final gradient norm:           0.000002958536

 
     Date and time (Linux)  : Tue Jul  7 17:01:41 2026
     Host name              : n-62-11-61                              

 Occupancies of natural orbitals
 -------------------------------

 Symmetry 1  ( A  ) -- Total occupation in this symmetry is   6.000000000

   2.000000000   1.969767723   1.974617650   0.006726514   0.006726514
   0.028536016   0.013625582

  Effective numbers of unpaired electrons this symmetry Eqs. 1) and 2):  0.22  0.01

  Total effective number of unpaired electrons :
  Eq. 1) sum(i) [(2 - n_i) n_i]    =  0.2198
  Eq. 2) sum(i) [(2 - n_i) n_i]**2 =  0.0103
 (Reference: M. Head-Gordon, Chemical Physics Letters 372 (2003) 508-511)

  --- NOTE THAT THE OCCUPATION NUMBERS ARE FOR ANALYSIS PURPOSE ONLY
  --- The orbital coefficients have NOT been transformed
  --- to ordered natural orbitals.

File label for MO orbitals:   7Jul26    CIORB  

 (Only coefficients > 0.0100 are printed.)

 Molecular orbitals for symmetry species 1  (A  )
 ------------------------------------------------

    Orbital         1        2        3        4        5        6        7
   1 Be  :1s     0.9918  -0.2245   0.0000  -0.0000   0.0000  -0.2181  -0.0000
   2 Be  :1s     0.0318   0.5565  -0.0000  -0.0000  -0.0000   1.2335   0.0000
   3 Be  :2px    0.0000  -0.0000  -0.5035   0.0000  -0.0000  -0.0000   1.4589
   4 Be  :2py   -0.0000   0.0000  -0.0000   0.0999  -0.9950  -0.0000  -0.0000
   5 Be  :2pz    0.0000   0.0000  -0.0000   0.9950   0.0999   0.0000  -0.0000
   6 H   :1s    -0.0028   0.3945  -0.4047  -0.0000   0.0000  -0.8227  -1.0355
   7 H   :1s    -0.0028   0.3945   0.4047   0.0000   0.0000  -0.8227   1.0355

 Printout of CI-coefficients abs greater than 0.05000 for root  1
 *** NOTE: this root is the CI reference state ***

 Printout of coefficients in interval  3.1623E-01 to  1.0000E+00
 ===============================================================

  Coefficient of CSF no.         1 is      0.98600362    9.86003621E-01
  Orbital          1   2
  Spin coupling    2   2

 Printout of coefficients in interval  1.0000E-01 to  3.1623E-01
 ===============================================================
   ( no coefficients )

 Printout of coefficients in interval  5.0000E-02 to  1.0000E-01
 ===============================================================

  Coefficient of CSF no.         3 is     -0.05648978   -5.64897816E-02
  Orbital          2   3
  Spin coupling    2   2

  Coefficient of CSF no.         5 is     -0.05648978   -5.64897816E-02
  Orbital          2   4
  Spin coupling    2   2

  Coefficient of CSF no.         7 is     -0.07992897   -7.99289685E-02
  Orbital          1   5
  Spin coupling    2   2

  Coefficient of CSF no.         8 is     -0.05789967   -5.78996709E-02
  Orbital          2   5
  Spin coupling    2   2

  Coefficient of CSF no.        95 is     -0.09158052   -9.15805161E-02
  Orbital          1   2   5   6
  Spin coupling    1  -1   1  -1

 Norm of printed CI vector ..      0.99671333

 Magnitude of CI coefficients
 ============================
 ( Ranges are relative to norm of vector :  1.00E+00 )

  10- 1 to 10- 0         1    0.97220314E+00      0.9722031407
  10- 2 to 10- 1         9    0.27321680E-01      0.9995248205
  10- 3 to 10- 2        13    0.47492096E-03      0.9999997415
  10- 4 to 10- 3         2    0.25852509E-06      1.0000000000
  Number of coefficients less than 10^-11 times norm is           80

  Total CPU  time used in SIRIUS :   0.08 seconds
  Total wall time used in SIRIUS :   1.09 seconds

 
     Date and time (Linux)  : Tue Jul  7 17:01:41 2026
     Host name              : n-62-11-61                              


                     .---------------------------------------.
                     | End of Wave Function Section (SIRIUS) |
                     `---------------------------------------'



                 .------------------------------------------------.
                 | Starting in Dynamic Property Section (RESPONS) |
                 `------------------------------------------------'


 ----------------------------------------------------------------------------------------
  RESPONSE  -  an MCSCF, MC-srDFT, DFT, SOPPA and SOPPA-srDFT response property program
 ----------------------------------------------------------------------------------------

 This is a configuration interaction response calculation.
   Note: this is equivalent to a CI sum-over-states calculation of response properties.


 -------- OUTPUT FROM RESPONSE INPUT PROCESSING --------




  Linear Response single residue calculation
 -------------------------------------------


    4 input options by user.

 Print level                                    : IPRPP  =   2
 Maximum number of iterations for eigenval.eqs. : MAXITP =  60
 Threshold for convergence of eigenvalue eqs.   : THCPP  = 1.000D-03
 Maximum iterations in optimal orbital algorithm: MAXITO =   5

    300 Excitation energies are calculated for symmetry no.    1

      3 property residues are calculated with labels:

               XDIPLEN 
               YDIPLEN 
               ZDIPLEN 

 Old direct access AO file found, SORTA skipped.

 2-el. integral transformation level 4: Total CPU and WALL times (sec)       0.004       0.058


 CI energy            :      -15.594778402541227
 -- inactive part     :      -11.648984953171549
 --   active part     :       -3.945793449369678
 -- nuclear repulsion :        3.381959617894736


                         *******************************
                         *** CI response calculation ***
                         *******************************

 ----------------------------------------------------------------
 ----- Linear response calculation
 ----- Symmetry of excitation/property operator(s)    1  ( A  )
 ----------------------------------------------------------------

 Number of excitations of this symmetry          300
 Number of response properties of this symmetry    0
 Number of C6/C8 properties of this symmetry       0


 Perturbation symmetry.     KSYMOP:           1
 Perturbation spin symmetry.TRPLET:           F
 Orbital variables.         KZWOPT:           0
 Configuration variables.   KZCONF:         105
 Total number of variables. KZVAR :         105

 ** RSPVAR ** Number of PP start vectors  300
   exceeds the maximum number of variables  104
   Number of start vectors reset to number of variables



 --- EXCITATION ENERGIES AND TRANSITION MOMENT CALCULATION (MCTDHF) ---

 Operator symmetry = 1  ( A  ); triplet =   F

RSPORT:    1 out of  105 new trial vectors linear dependent

 ** RSPCTL MICROITERATION NUMBER    1

      Root  Residual tot.,    conf., and orb.    Bnorm      Eigenvalue
      ----------------------------------------------------------------
         1    3.08846D-15  3.09D-15  0.00D+00  1.00D+00    2.66449D-01
         2    2.37718D-15  2.38D-15  0.00D+00  1.00D+00    2.66449D-01
         3    3.75209D-15  3.75D-15  0.00D+00  1.00D+00    3.72938D-01
         4    2.69842D-15  2.70D-15  0.00D+00  1.00D+00    3.72938D-01
         5    4.10719D-15  4.11D-15  0.00D+00  1.00D+00    5.34567D-01
         6    2.70303D-15  2.70D-15  0.00D+00  1.00D+00    5.76599D-01
         7    3.69620D-15  3.70D-15  0.00D+00  1.00D+00    5.76599D-01
         8    4.63285D-15  4.63D-15  0.00D+00  1.00D+00    5.98459D-01
         9    2.82657D-15  2.83D-15  0.00D+00  1.00D+00    6.29715D-01
        10    5.17438D-15  5.17D-15  0.00D+00  1.00D+00    7.16602D-01
        11    4.79993D-15  4.80D-15  0.00D+00  1.00D+00    7.96824D-01
        12    4.05007D-15  4.05D-15  0.00D+00  1.00D+00    7.96824D-01
        13    3.55037D-15  3.55D-15  0.00D+00  1.00D+00    8.80225D-01
        14    3.87507D-15  3.88D-15  0.00D+00  1.00D+00    8.80225D-01
        15    4.43200D-15  4.43D-15  0.00D+00  1.00D+00    9.25968D-01
        16    4.81230D-15  4.81D-15  0.00D+00  1.00D+00    9.25968D-01
        17    3.90335D-15  3.90D-15  0.00D+00  1.00D+00    9.29902D-01
        18    4.75463D-15  4.75D-15  0.00D+00  1.00D+00    9.29902D-01
        19    3.81675D-15  3.82D-15  0.00D+00  1.00D+00    9.30295D-01
        20    5.00670D-15  5.01D-15  0.00D+00  1.00D+00    9.52314D-01
        21    9.26751D-15  9.27D-15  0.00D+00  1.00D+00    9.88736D-01
        22    4.48117D-15  4.48D-15  0.00D+00  1.00D+00    1.04963D+00
        23    5.00982D-15  5.01D-15  0.00D+00  1.00D+00    1.04963D+00
        24    4.72400D-15  4.72D-15  0.00D+00  1.00D+00    1.05019D+00
        25    6.05674D-15  6.06D-15  0.00D+00  1.00D+00    1.05019D+00
        26    4.88404D-15  4.88D-15  0.00D+00  1.00D+00    1.06746D+00
        27    4.98051D-15  4.98D-15  0.00D+00  1.00D+00    1.13206D+00
        28    3.59042D-15  3.59D-15  0.00D+00  1.00D+00    1.18155D+00
        29    3.98368D-15  3.98D-15  0.00D+00  1.00D+00    1.18155D+00
        30    3.50831D-15  3.51D-15  0.00D+00  1.00D+00    1.19042D+00
        31    4.30406D-15  4.30D-15  0.00D+00  1.00D+00    1.19042D+00
        32    3.58836D-15  3.59D-15  0.00D+00  1.00D+00    1.23457D+00
        33    4.44529D-15  4.45D-15  0.00D+00  1.00D+00    1.24192D+00
        34    4.21211D-15  4.21D-15  0.00D+00  1.00D+00    1.24192D+00
        35    3.63302D-15  3.63D-15  0.00D+00  1.00D+00    1.24272D+00
        36    2.91777D-15  2.92D-15  0.00D+00  1.00D+00    1.30682D+00
        37    5.00631D-15  5.01D-15  0.00D+00  1.00D+00    1.30682D+00
        38    4.15187D-15  4.15D-15  0.00D+00  1.00D+00    1.31003D+00
        39    5.15666D-15  5.16D-15  0.00D+00  1.00D+00    1.31003D+00
        40    4.99334D-15  4.99D-15  0.00D+00  1.00D+00    1.33425D+00
        41    5.47194D-15  5.47D-15  0.00D+00  1.00D+00    1.34184D+00
        42    4.11381D-15  4.11D-15  0.00D+00  1.00D+00    1.34646D+00
        43    4.03262D-15  4.03D-15  0.00D+00  1.00D+00    1.34646D+00
        44    3.91717D-15  3.92D-15  0.00D+00  1.00D+00    1.39577D+00
        45    5.04181D-15  5.04D-15  0.00D+00  1.00D+00    1.40930D+00
        46    4.28070D-15  4.28D-15  0.00D+00  1.00D+00    1.44356D+00
        47    4.76949D-15  4.77D-15  0.00D+00  1.00D+00    1.44356D+00
        48    4.66855D-15  4.67D-15  0.00D+00  1.00D+00    1.47179D+00
        49    4.81099D-15  4.81D-15  0.00D+00  1.00D+00    1.47179D+00
        50    7.23738D-15  7.24D-15  0.00D+00  1.00D+00    1.60563D+00
        51    3.98603D-15  3.99D-15  0.00D+00  1.00D+00    1.62584D+00
        52    6.88154D-15  6.88D-15  0.00D+00  1.00D+00    1.62584D+00
        53    6.00667D-15  6.01D-15  0.00D+00  1.00D+00    1.62782D+00
        54    6.92473D-15  6.92D-15  0.00D+00  1.00D+00    1.64015D+00
        55    6.91685D-15  6.92D-15  0.00D+00  1.00D+00    1.64015D+00
        56    4.45040D-15  4.45D-15  0.00D+00  1.00D+00    1.65510D+00
        57    5.84613D-15  5.85D-15  0.00D+00  1.00D+00    1.70042D+00
        58    4.00396D-15  4.00D-15  0.00D+00  1.00D+00    1.72061D+00
        59    7.71347D-15  7.71D-15  0.00D+00  1.00D+00    1.75988D+00
        60    8.09975D-15  8.10D-15  0.00D+00  1.00D+00    1.75988D+00
        61    4.78197D-15  4.78D-15  0.00D+00  1.00D+00    1.81961D+00
        62    8.85205D-15  8.85D-15  0.00D+00  1.00D+00    1.81961D+00
        63    8.42005D-15  8.42D-15  0.00D+00  1.00D+00    1.82097D+00
        64    1.00691D-14  1.01D-14  0.00D+00  1.00D+00    1.82472D+00
        65    5.98541D-15  5.99D-15  0.00D+00  1.00D+00    1.86689D+00
        66    5.87824D-15  5.88D-15  0.00D+00  1.00D+00    1.87392D+00
        67    8.91516D-15  8.92D-15  0.00D+00  1.00D+00    1.87392D+00
        68    7.87713D-15  7.88D-15  0.00D+00  1.00D+00    1.90242D+00
        69    6.10953D-15  6.11D-15  0.00D+00  1.00D+00    1.92548D+00
        70    7.16810D-15  7.17D-15  0.00D+00  1.00D+00    1.92548D+00
        71    9.53984D-15  9.54D-15  0.00D+00  1.00D+00    1.95624D+00
        72    1.01165D-14  1.01D-14  0.00D+00  1.00D+00    1.95624D+00
        73    6.24761D-15  6.25D-15  0.00D+00  1.00D+00    1.96352D+00
        74    7.87652D-15  7.88D-15  0.00D+00  1.00D+00    1.98838D+00
        75    8.01987D-15  8.02D-15  0.00D+00  1.00D+00    1.98838D+00
        76    1.20617D-14  1.21D-14  0.00D+00  1.00D+00    2.03845D+00
        77    1.50392D-14  1.50D-14  0.00D+00  1.00D+00    2.03845D+00
        78    7.45958D-15  7.46D-15  0.00D+00  1.00D+00    2.06904D+00
        79    9.84255D-15  9.84D-15  0.00D+00  1.00D+00    2.10447D+00
        80    1.66180D-14  1.66D-14  0.00D+00  1.00D+00    2.10447D+00
        81    7.59273D-15  7.59D-15  0.00D+00  1.00D+00    2.14754D+00
        82    7.50348D-15  7.50D-15  0.00D+00  1.00D+00    2.19080D+00
        83    1.34480D-14  1.34D-14  0.00D+00  1.00D+00    2.19080D+00
        84    1.29544D-14  1.30D-14  0.00D+00  1.00D+00    2.24095D+00
        85    1.90938D-14  1.91D-14  0.00D+00  1.00D+00    2.30237D+00
        86    1.44967D-14  1.45D-14  0.00D+00  1.00D+00    2.40723D+00
        87    1.47751D-14  1.48D-14  0.00D+00  1.00D+00    2.40723D+00
        88    9.74539D-15  9.75D-15  0.00D+00  1.00D+00    2.42074D+00
        89    2.06608D-14  2.07D-14  0.00D+00  1.00D+00    2.42074D+00
        90    7.22281D-15  7.22D-15  0.00D+00  1.00D+00    2.45377D+00
        91    9.97892D-15  9.98D-15  0.00D+00  1.00D+00    2.45691D+00
        92    1.07483D-14  1.07D-14  0.00D+00  1.00D+00    2.48668D+00
        93    1.05766D-14  1.06D-14  0.00D+00  1.00D+00    2.51325D+00
        94    1.51542D-14  1.52D-14  0.00D+00  1.00D+00    2.51325D+00
        95    9.70126D-15  9.70D-15  0.00D+00  1.00D+00    2.53158D+00
        96    1.45481D-14  1.45D-14  0.00D+00  1.00D+00    2.53158D+00
        97    4.08059D-15  4.08D-15  0.00D+00  1.00D+00    2.67834D+00
        98    9.38706D-15  9.39D-15  0.00D+00  1.00D+00    2.74401D+00
        99    8.55108D-15  8.55D-15  0.00D+00  1.00D+00    2.75051D+00
       100    2.10730D-14  2.11D-14  0.00D+00  1.00D+00    2.75051D+00
       101    4.70610D-15  4.71D-15  0.00D+00  1.00D+00    2.83214D+00
       102    1.22994D-14  1.23D-14  0.00D+00  1.00D+00    2.91243D+00
       103    1.97279D-14  1.97D-14  0.00D+00  1.00D+00    2.91243D+00
       104    3.14306D-15  3.14D-15  0.00D+00  1.00D+00    3.06401D+00
       105    2.78646D-15  2.79D-15  0.00D+00  1.00D+00   -2.66449D-01

 *** THE REQUESTED  104 SOLUTION VECTORS CONVERGED

 Convergence of RSP solution vectors, threshold = 1.00D-03
 ---------------------------------------------------------------
 (dimension of paired reduced space:  208)
 RSP solution vector no.    1; norm of residual   3.09D-15
 RSP solution vector no.    2; norm of residual   2.38D-15
 RSP solution vector no.    3; norm of residual   3.75D-15
 RSP solution vector no.    4; norm of residual   2.70D-15
 RSP solution vector no.    5; norm of residual   4.11D-15
 RSP solution vector no.    6; norm of residual   2.70D-15
 RSP solution vector no.    7; norm of residual   3.70D-15
 RSP solution vector no.    8; norm of residual   4.63D-15
 RSP solution vector no.    9; norm of residual   2.83D-15
 RSP solution vector no.   10; norm of residual   5.17D-15
 RSP solution vector no.   11; norm of residual   4.80D-15
 RSP solution vector no.   12; norm of residual   4.05D-15
 RSP solution vector no.   13; norm of residual   3.55D-15
 RSP solution vector no.   14; norm of residual   3.88D-15
 RSP solution vector no.   15; norm of residual   4.43D-15
 RSP solution vector no.   16; norm of residual   4.81D-15
 RSP solution vector no.   17; norm of residual   3.90D-15
 RSP solution vector no.   18; norm of residual   4.75D-15
 RSP solution vector no.   19; norm of residual   3.82D-15
 RSP solution vector no.   20; norm of residual   5.01D-15
 RSP solution vector no.   21; norm of residual   9.27D-15
 RSP solution vector no.   22; norm of residual   4.48D-15
 RSP solution vector no.   23; norm of residual   5.01D-15
 RSP solution vector no.   24; norm of residual   4.72D-15
 RSP solution vector no.   25; norm of residual   6.06D-15
 RSP solution vector no.   26; norm of residual   4.88D-15
 RSP solution vector no.   27; norm of residual   4.98D-15
 RSP solution vector no.   28; norm of residual   3.59D-15
 RSP solution vector no.   29; norm of residual   3.98D-15
 RSP solution vector no.   30; norm of residual   3.51D-15
 RSP solution vector no.   31; norm of residual   4.30D-15
 RSP solution vector no.   32; norm of residual   3.59D-15
 RSP solution vector no.   33; norm of residual   4.45D-15
 RSP solution vector no.   34; norm of residual   4.21D-15
 RSP solution vector no.   35; norm of residual   3.63D-15
 RSP solution vector no.   36; norm of residual   2.92D-15
 RSP solution vector no.   37; norm of residual   5.01D-15
 RSP solution vector no.   38; norm of residual   4.15D-15
 RSP solution vector no.   39; norm of residual   5.16D-15
 RSP solution vector no.   40; norm of residual   4.99D-15
 RSP solution vector no.   41; norm of residual   5.47D-15
 RSP solution vector no.   42; norm of residual   4.11D-15
 RSP solution vector no.   43; norm of residual   4.03D-15
 RSP solution vector no.   44; norm of residual   3.92D-15
 RSP solution vector no.   45; norm of residual   5.04D-15
 RSP solution vector no.   46; norm of residual   4.28D-15
 RSP solution vector no.   47; norm of residual   4.77D-15
 RSP solution vector no.   48; norm of residual   4.67D-15
 RSP solution vector no.   49; norm of residual   4.81D-15
 RSP solution vector no.   50; norm of residual   7.24D-15
 RSP solution vector no.   51; norm of residual   3.99D-15
 RSP solution vector no.   52; norm of residual   6.88D-15
 RSP solution vector no.   53; norm of residual   6.01D-15
 RSP solution vector no.   54; norm of residual   6.92D-15
 RSP solution vector no.   55; norm of residual   6.92D-15
 RSP solution vector no.   56; norm of residual   4.45D-15
 RSP solution vector no.   57; norm of residual   5.85D-15
 RSP solution vector no.   58; norm of residual   4.00D-15
 RSP solution vector no.   59; norm of residual   7.71D-15
 RSP solution vector no.   60; norm of residual   8.10D-15
 RSP solution vector no.   61; norm of residual   4.78D-15
 RSP solution vector no.   62; norm of residual   8.85D-15
 RSP solution vector no.   63; norm of residual   8.42D-15
 RSP solution vector no.   64; norm of residual   1.01D-14
 RSP solution vector no.   65; norm of residual   5.99D-15
 RSP solution vector no.   66; norm of residual   5.88D-15
 RSP solution vector no.   67; norm of residual   8.92D-15
 RSP solution vector no.   68; norm of residual   7.88D-15
 RSP solution vector no.   69; norm of residual   6.11D-15
 RSP solution vector no.   70; norm of residual   7.17D-15
 RSP solution vector no.   71; norm of residual   9.54D-15
 RSP solution vector no.   72; norm of residual   1.01D-14
 RSP solution vector no.   73; norm of residual   6.25D-15
 RSP solution vector no.   74; norm of residual   7.88D-15
 RSP solution vector no.   75; norm of residual   8.02D-15
 RSP solution vector no.   76; norm of residual   1.21D-14
 RSP solution vector no.   77; norm of residual   1.50D-14
 RSP solution vector no.   78; norm of residual   7.46D-15
 RSP solution vector no.   79; norm of residual   9.84D-15
 RSP solution vector no.   80; norm of residual   1.66D-14
 RSP solution vector no.   81; norm of residual   7.59D-15
 RSP solution vector no.   82; norm of residual   7.50D-15
 RSP solution vector no.   83; norm of residual   1.34D-14
 RSP solution vector no.   84; norm of residual   1.30D-14
 RSP solution vector no.   85; norm of residual   1.91D-14
 RSP solution vector no.   86; norm of residual   1.45D-14
 RSP solution vector no.   87; norm of residual   1.48D-14
 RSP solution vector no.   88; norm of residual   9.75D-15
 RSP solution vector no.   89; norm of residual   2.07D-14
 RSP solution vector no.   90; norm of residual   7.22D-15
 RSP solution vector no.   91; norm of residual   9.98D-15
 RSP solution vector no.   92; norm of residual   1.07D-14
 RSP solution vector no.   93; norm of residual   1.06D-14
 RSP solution vector no.   94; norm of residual   1.52D-14
 RSP solution vector no.   95; norm of residual   9.70D-15
 RSP solution vector no.   96; norm of residual   1.45D-14
 RSP solution vector no.   97; norm of residual   4.08D-15
 RSP solution vector no.   98; norm of residual   9.39D-15
 RSP solution vector no.   99; norm of residual   8.55D-15
 RSP solution vector no.  100; norm of residual   2.11D-14
 RSP solution vector no.  101; norm of residual   4.71D-15
 RSP solution vector no.  102; norm of residual   1.23D-14
 RSP solution vector no.  103; norm of residual   1.97D-14
 RSP solution vector no.  104; norm of residual   3.14D-15

 *** RSPCTL MICROITERATIONS CONVERGED

@ Singlet transition operator label: XDIPLEN 
@ STATE NO:    1 *TRANSITION MOMENT:  2.48384406E-16 *ENERGY(eV):   7.2504429    
@ STATE NO:    2 *TRANSITION MOMENT: -1.56104197E-16 *ENERGY(eV):   7.2504429    
@ STATE NO:    3 *TRANSITION MOMENT:  1.14027390E-15 *ENERGY(eV):   10.148159    
@ STATE NO:    4 *TRANSITION MOMENT:  2.66121774E-16 *ENERGY(eV):   10.148159    
@ STATE NO:    5 *TRANSITION MOMENT: -6.24636521E-15 *ENERGY(eV):   14.546320    
@ STATE NO:    6 *TRANSITION MOMENT:  1.69477090E-15 *ENERGY(eV):   15.690066    
@ STATE NO:    7 *TRANSITION MOMENT:  1.67570772E-15 *ENERGY(eV):   15.690066    
@ STATE NO:    8 *TRANSITION MOMENT:  2.66648065E-15 *ENERGY(eV):   16.284906    
@ STATE NO:    9 *TRANSITION MOMENT:   1.4712932     *ENERGY(eV):   17.135412    
@ STATE NO:   10 *TRANSITION MOMENT: -3.14215391E-15 *ENERGY(eV):   19.499724    
@ STATE NO:   11 *TRANSITION MOMENT:  1.71586349E-15 *ENERGY(eV):   21.682690    
@ STATE NO:   12 *TRANSITION MOMENT:  2.71182585E-16 *ENERGY(eV):   21.682690    
@ STATE NO:   13 *TRANSITION MOMENT:  1.02194278E-16 *ENERGY(eV):   23.952145    
@ STATE NO:   14 *TRANSITION MOMENT:  1.56542168E-15 *ENERGY(eV):   23.952145    
@ STATE NO:   15 *TRANSITION MOMENT: -5.79907216E-15 *ENERGY(eV):   25.196869    

@ Singlet transition operator label: YDIPLEN 
@ STATE NO:    1 *TRANSITION MOMENT: -1.25819293E-15 *ENERGY(eV):   7.2504429    
@ STATE NO:    2 *TRANSITION MOMENT: -5.21446533E-15 *ENERGY(eV):   7.2504429    
@ STATE NO:    3 *TRANSITION MOMENT:  0.15039561     *ENERGY(eV):   10.148159    
@ STATE NO:    4 *TRANSITION MOMENT:  -1.2956240     *ENERGY(eV):   10.148159    
@ STATE NO:    5 *TRANSITION MOMENT: -7.21069067E-16 *ENERGY(eV):   14.546320    
@ STATE NO:    6 *TRANSITION MOMENT: -4.60672554E-17 *ENERGY(eV):   15.690066    
@ STATE NO:    7 *TRANSITION MOMENT: -4.58916232E-17 *ENERGY(eV):   15.690066    
@ STATE NO:    8 *TRANSITION MOMENT:  3.20576111E-16 *ENERGY(eV):   16.284906    
@ STATE NO:    9 *TRANSITION MOMENT: -2.99093814E-16 *ENERGY(eV):   17.135412    
@ STATE NO:   10 *TRANSITION MOMENT: -1.35321952E-15 *ENERGY(eV):   19.499724    
@ STATE NO:   11 *TRANSITION MOMENT:  2.01267872E-03 *ENERGY(eV):   21.682690    
@ STATE NO:   12 *TRANSITION MOMENT: -6.19655657E-03 *ENERGY(eV):   21.682690    
@ STATE NO:   13 *TRANSITION MOMENT: -2.16766666E-16 *ENERGY(eV):   23.952145    
@ STATE NO:   14 *TRANSITION MOMENT: -1.06969410E-16 *ENERGY(eV):   23.952145    
@ STATE NO:   15 *TRANSITION MOMENT: -1.13351609E-16 *ENERGY(eV):   25.196869    

@ Singlet transition operator label: ZDIPLEN 
@ STATE NO:    1 *TRANSITION MOMENT: -5.21124169E-15 *ENERGY(eV):   7.2504429    
@ STATE NO:    2 *TRANSITION MOMENT:  1.59627599E-15 *ENERGY(eV):   7.2504429    
@ STATE NO:    3 *TRANSITION MOMENT:   1.2883346     *ENERGY(eV):   10.148159    
@ STATE NO:    4 *TRANSITION MOMENT:  6.15077938E-02 *ENERGY(eV):   10.148159    
@ STATE NO:    5 *TRANSITION MOMENT:  3.93539610E-17 *ENERGY(eV):   14.546320    
@ STATE NO:    6 *TRANSITION MOMENT: -1.35531227E-15 *ENERGY(eV):   15.690066    
@ STATE NO:    7 *TRANSITION MOMENT:  1.77013849E-16 *ENERGY(eV):   15.690066    
@ STATE NO:    8 *TRANSITION MOMENT:  6.68463296E-19 *ENERGY(eV):   16.284906    
@ STATE NO:    9 *TRANSITION MOMENT: -4.30911411E-16 *ENERGY(eV):   17.135412    
@ STATE NO:   10 *TRANSITION MOMENT:  1.02550644E-15 *ENERGY(eV):   19.499724    
@ STATE NO:   11 *TRANSITION MOMENT:  5.94001428E-03 *ENERGY(eV):   21.682690    
@ STATE NO:   12 *TRANSITION MOMENT:  9.68159056E-04 *ENERGY(eV):   21.682690    
@ STATE NO:   13 *TRANSITION MOMENT: -6.07321079E-16 *ENERGY(eV):   23.952145    
@ STATE NO:   14 *TRANSITION MOMENT:  1.47235602E-15 *ENERGY(eV):   23.952145    
@ STATE NO:   15 *TRANSITION MOMENT:  1.33482760E-15 *ENERGY(eV):   25.196869    


 **************************************************************************************
 *** @ Excit. operator sym 1 & ref. state sym 1 => excited state symmetry 1  ( A  ) ***
 **************************************************************************************



 @ Excited state no:    1 in symmetry 1  ( A  ) - singlet excitation
 -------------------------------------------------------------------

@ Excitation energy :  0.26644888     au
@                       7.2504429     eV;   58478.769     cm-1;   699.56143     kJ / mol

@ Total energy :       -15.328330     au

@ Operator label: XDIPLEN ; Transition moment :  2.48384406E-16 au
@ Oscillator strength (LENGTH)   :  1.09590093E-32  (X-polarization)

@ Operator label: YDIPLEN ; Transition moment : -1.25819293E-15 au
@ Oscillator strength (LENGTH)   :  2.81201171E-31  (Y-polarization)

@ Operator label: ZDIPLEN ; Transition moment : -5.21124169E-15 au
@ Oscillator strength (LENGTH)   :  4.82397528E-30  (Z-polarization)
@ Total oscillator strength (LENGTH)   :  5.11613546E-30

 Eigenvector for state no.  1

      Index(conf)                         Z operator          Y operator
      ----------                      --------------      --------------
          16                            0.9560159737        0.0000000000
          23                            0.1183935638        0.0000000000
          79                            0.2178989947        0.0000000000

      102 elements with absolute value ≤ 1.00D-01 are not printed.

 Printout of coefficients in interval  3.1623E-01 to  1.0000E+00
 ===============================================================

  Coefficient of CSF no.        16 is      0.95601597    9.56015974E-01
  Orbital          1   2   3
  Spin coupling    2   1  -1

 Printout of coefficients in interval  1.0000E-01 to  3.1623E-01
 ===============================================================

  Coefficient of CSF no.        23 is      0.11839356    1.18393564E-01
  Orbital          1   3   6
  Spin coupling    2   1  -1

  Coefficient of CSF no.        79 is      0.21789899    2.17898995E-01
  Orbital          1   2   3   5
  Spin coupling    1  -1   1  -1

 Printout of coefficients in interval  1.0000E-01 to  1.0000E-01
 ===============================================================
   ( no coefficients )

 Norm of printed CI vector ..      0.97546355

 Magnitude of CI coefficients
 ============================
 ( Ranges are relative to norm of vector :  1.00E+00 )

  10- 1 to 10- 0         3    0.97546355E+00      0.9754635497
  10- 2 to 10- 1         7    0.24475724E-01      0.9999392741
  10- 3 to 10- 2         2    0.60723823E-04      0.9999999980
  10- 5 to 10- 4         1    0.18622558E-08      0.9999999998
  10- 6 to 10- 5         9    0.17517405E-09      1.0000000000
  10- 7 to 10- 6         1    0.11414441E-12      1.0000000000
  10- 8 to 10- 7         1    0.95836308E-14      1.0000000000
  Number of coefficients less than 10^-11 times norm is           81


 @ Excited state no:    2 in symmetry 1  ( A  ) - singlet excitation
 -------------------------------------------------------------------

@ Excitation energy :  0.26644888     au
@                       7.2504429     eV;   58478.769     cm-1;   699.56143     kJ / mol

@ Total energy :       -15.328330     au

@ Operator label: XDIPLEN ; Transition moment : -1.56104197E-16 au
@ Oscillator strength (LENGTH)   :  4.32864331E-33  (X-polarization)

@ Operator label: YDIPLEN ; Transition moment : -5.21446533E-15 au
@ Oscillator strength (LENGTH)   :  4.82994528E-30  (Y-polarization)

@ Operator label: ZDIPLEN ; Transition moment :  1.59627599E-15 au
@ Oscillator strength (LENGTH)   :  4.52625067E-31  (Z-polarization)
@ Total oscillator strength (LENGTH)   :  5.28689899E-30

 Eigenvector for state no.  2

      Index(conf)                         Z operator          Y operator
      ----------                      --------------      --------------
          17                           -0.9559863838        0.0000000000
          24                           -0.1183898993        0.0000000000
          81                           -0.2178922504        0.0000000000

      102 elements with absolute value ≤ 1.00D-01 are not printed.

 Printout of coefficients in interval  3.1623E-01 to  1.0000E+00
 ===============================================================

  Coefficient of CSF no.        17 is     -0.95598638   -9.55986384E-01
  Orbital          1   2   4
  Spin coupling    2   1  -1

 Printout of coefficients in interval  1.0000E-01 to  3.1623E-01
 ===============================================================

  Coefficient of CSF no.        24 is     -0.11838990   -1.18389899E-01
  Orbital          1   4   6
  Spin coupling    2   1  -1

  Coefficient of CSF no.        81 is     -0.21789225   -2.17892250E-01
  Orbital          1   2   4   5
  Spin coupling    1  -1   1  -1

 Printout of coefficients in interval  1.0000E-01 to  1.0000E-01
 ===============================================================
   ( no coefficients )

 Norm of printed CI vector ..      0.97540317

 Magnitude of CI coefficients
 ============================
 ( Ranges are relative to norm of vector :  1.00E+00 )

  10- 1 to 10- 0         3    0.97540317E+00      0.9754031670
  10- 2 to 10- 1         7    0.24474209E-01      0.9998773764
  10- 3 to 10- 2         4    0.12023702E-03      0.9999976134
  10- 4 to 10- 3         8    0.23828388E-05      0.9999999962
  10- 5 to 10- 4         2    0.37590207E-08      1.0000000000
  Number of coefficients less than 10^-11 times norm is           81


 @ Excited state no:    3 in symmetry 1  ( A  ) - singlet excitation
 -------------------------------------------------------------------

@ Excitation energy :  0.37293800     au
@                       10.148159     eV;   81850.429     cm-1;   979.14856     kJ / mol

@ Total energy :       -15.221840     au

@ Operator label: XDIPLEN ; Transition moment :  1.14027390E-15 au
@ Oscillator strength (LENGTH)   :  3.23268764E-31  (X-polarization)

@ Operator label: YDIPLEN ; Transition moment :  0.15039561     au
@ Oscillator strength (LENGTH)   :  5.62361673E-03  (Y-polarization)

@ Operator label: ZDIPLEN ; Transition moment :   1.2883346     au
@ Oscillator strength (LENGTH)   :  0.41266982      (Z-polarization)
@ Total oscillator strength (LENGTH)   :  0.41829343    

 Eigenvector for state no.  3

      Index(conf)                         Z operator          Y operator
      ----------                      --------------      --------------
          20                           -0.1287755910        0.0000000000
          26                            0.9639809731        0.0000000000
          30                           -0.1771981345        0.0000000000
          87                           -0.1093311966        0.0000000000

      101 elements with absolute value ≤ 1.00D-01 are not printed.

 Printout of coefficients in interval  3.1623E-01 to  1.0000E+00
 ===============================================================

  Coefficient of CSF no.        26 is      0.96398097    9.63980973E-01
  Orbital          2   1   3
  Spin coupling    2   1  -1

 Printout of coefficients in interval  1.0000E-01 to  3.1623E-01
 ===============================================================

  Coefficient of CSF no.        20 is     -0.12877559   -1.28775591E-01
  Orbital          1   3   5
  Spin coupling    2   1  -1

  Coefficient of CSF no.        30 is     -0.17719813   -1.77198135E-01
  Orbital          2   3   5
  Spin coupling    2   1  -1

  Coefficient of CSF no.        87 is     -0.10933120   -1.09331197E-01
  Orbital          1   2   3   6
  Spin coupling    1  -1   1  -1

 Norm of printed CI vector ..      0.98919496

 Magnitude of CI coefficients
 ============================
 ( Ranges are relative to norm of vector :  1.00E+00 )

  10- 1 to 10- 0         4    0.98919496E+00      0.9891949588
  10- 2 to 10- 1         6    0.10720661E-01      0.9999156200
  10- 3 to 10- 2         7    0.82866898E-04      0.9999984869
  10- 4 to 10- 3         5    0.15098257E-05      0.9999999967
  10- 5 to 10- 4         2    0.32883219E-08      1.0000000000
  Number of coefficients less than 10^-11 times norm is           81


 @ Excited state no:    4 in symmetry 1  ( A  ) - singlet excitation
 -------------------------------------------------------------------

@ Excitation energy :  0.37293800     au
@                       10.148159     eV;   81850.429     cm-1;   979.14856     kJ / mol

@ Total energy :       -15.221840     au

@ Operator label: XDIPLEN ; Transition moment :  2.66121774E-16 au
@ Oscillator strength (LENGTH)   :  1.76078444E-32  (X-polarization)

@ Operator label: YDIPLEN ; Transition moment :  -1.2956240     au
@ Oscillator strength (LENGTH)   :  0.41735283      (Y-polarization)

@ Operator label: ZDIPLEN ; Transition moment :  6.15077938E-02 au
@ Oscillator strength (LENGTH)   :  9.40601516E-04  (Z-polarization)
@ Total oscillator strength (LENGTH)   :  0.41829343    

 Eigenvector for state no.  4

      Index(conf)                         Z operator          Y operator
      ----------                      --------------      --------------
          21                           -0.1286143008        0.0000000000
          27                            0.9627735959        0.0000000000
          31                           -0.1769761955        0.0000000000
          89                           -0.1091942603        0.0000000000

      101 elements with absolute value ≤ 1.00D-01 are not printed.

 Printout of coefficients in interval  3.1623E-01 to  1.0000E+00
 ===============================================================

  Coefficient of CSF no.        27 is      0.96277360    9.62773596E-01
  Orbital          2   1   4
  Spin coupling    2   1  -1

 Printout of coefficients in interval  1.0000E-01 to  3.1623E-01
 ===============================================================

  Coefficient of CSF no.        21 is     -0.12861430   -1.28614301E-01
  Orbital          1   4   5
  Spin coupling    2   1  -1

  Coefficient of CSF no.        31 is     -0.17697620   -1.76976196E-01
  Orbital          2   4   5
  Spin coupling    2   1  -1

  Coefficient of CSF no.        89 is     -0.10919426   -1.09194260E-01
  Orbital          1   2   4   6
  Spin coupling    1  -1   1  -1

 Norm of printed CI vector ..      0.98671860

 Magnitude of CI coefficients
 ============================
 ( Ranges are relative to norm of vector :  1.00E+00 )

  10- 1 to 10- 0         4    0.98671860E+00      0.9867185957
  10- 2 to 10- 1         6    0.13020751E-01      0.9997393466
  10- 3 to 10- 2        11    0.26047104E-03      0.9999998177
  10- 4 to 10- 3         3    0.18233485E-06      1.0000000000
  Number of coefficients less than 10^-11 times norm is           81


 @ Excited state no:    5 in symmetry 1  ( A  ) - singlet excitation
 -------------------------------------------------------------------

@ Excitation energy :  0.53456743     au
@                       14.546320     eV;   117323.99     cm-1;   1403.5066     kJ / mol

@ Total energy :       -15.060211     au

@ Operator label: XDIPLEN ; Transition moment : -6.24636521E-15 au
@ Oscillator strength (LENGTH)   :  1.39048396E-29  (X-polarization)

@ Operator label: YDIPLEN ; Transition moment : -7.21069067E-16 au
@ Oscillator strength (LENGTH)   :  1.85295541E-31  (Y-polarization)

@ Operator label: ZDIPLEN ; Transition moment :  3.93539610E-17 au
@ Oscillator strength (LENGTH)   :  5.51935260E-34  (Z-polarization)
@ Total oscillator strength (LENGTH)   :  1.40906871E-29

 Eigenvector for state no.  5

      Index(conf)                         Z operator          Y operator
      ----------                      --------------      --------------
           2                           -0.3312936826        0.0000000000
           3                            0.3759403305        0.0000000000
           4                           -0.3312936826        0.0000000000
           5                            0.3759403305        0.0000000000
           7                            0.2677211426        0.0000000000
           8                           -0.1441800668        0.0000000000
          22                           -0.1022429188        0.0000000000
          29                           -0.5753199243        0.0000000000
          39                            0.1367820162        0.0000000000
          49                            0.1367820162        0.0000000000

       95 elements with absolute value ≤ 1.00D-01 are not printed.

 Printout of coefficients in interval  3.1623E-01 to  1.0000E+00
 ===============================================================

  Coefficient of CSF no.         2 is     -0.33129368   -3.31293683E-01
  Orbital          1   3
  Spin coupling    2   2

  Coefficient of CSF no.         3 is      0.37594033    3.75940331E-01
  Orbital          2   3
  Spin coupling    2   2

  Coefficient of CSF no.         4 is     -0.33129368   -3.31293683E-01
  Orbital          1   4
  Spin coupling    2   2

  Coefficient of CSF no.         5 is      0.37594033    3.75940331E-01
  Orbital          2   4
  Spin coupling    2   2

  Coefficient of CSF no.        29 is     -0.57531992   -5.75319924E-01
  Orbital          2   1   5
  Spin coupling    2   1  -1

 Printout of coefficients in interval  1.0000E-01 to  3.1623E-01
 ===============================================================

  Coefficient of CSF no.         7 is      0.26772114    2.67721143E-01
  Orbital          1   5
  Spin coupling    2   2

  Coefficient of CSF no.         8 is     -0.14418007   -1.44180067E-01
  Orbital          2   5
  Spin coupling    2   2

  Coefficient of CSF no.        22 is     -0.10224292   -1.02242919E-01
  Orbital          1   2   6
  Spin coupling    2   1  -1

  Coefficient of CSF no.        39 is      0.13678202    1.36782016E-01
  Orbital          3   1   5
  Spin coupling    2   1  -1

  Coefficient of CSF no.        49 is      0.13678202    1.36782016E-01
  Orbital          4   1   5
  Spin coupling    2   1  -1

 Norm of printed CI vector ..      0.97350104

 Magnitude of CI coefficients
 ============================
 ( Ranges are relative to norm of vector :  1.00E+00 )

  10- 1 to 10- 0        10    0.97350104E+00      0.9735010441
  10- 2 to 10- 1        10    0.26351178E-01      0.9998522225
  10- 3 to 10- 2         4    0.14749452E-03      0.9999997170
  10- 4 to 10- 3         1    0.28300047E-06      1.0000000000
  Number of coefficients less than 10^-11 times norm is           80


 @ Excited state no:    6 in symmetry 1  ( A  ) - singlet excitation
 -------------------------------------------------------------------

@ Excitation energy :  0.57659932     au
@                       15.690066     eV;   126548.92     cm-1;   1513.8613     kJ / mol

@ Total energy :       -15.018179     au

@ Operator label: XDIPLEN ; Transition moment :  1.69477090E-15 au
@ Oscillator strength (LENGTH)   :  1.10409099E-30  (X-polarization)

@ Operator label: YDIPLEN ; Transition moment : -4.60672554E-17 au
@ Oscillator strength (LENGTH)   :  8.15769656E-34  (Y-polarization)

@ Operator label: ZDIPLEN ; Transition moment : -1.35531227E-15 au
@ Oscillator strength (LENGTH)   :  7.06092518E-31  (Z-polarization)
@ Total oscillator strength (LENGTH)   :  1.81099928E-30

 Eigenvector for state no.  6

      Index(conf)                         Z operator          Y operator
      ----------                      --------------      --------------
           2                            0.4990568091        0.0000000000
           3                           -0.4661071028        0.0000000000
           4                           -0.4990568091        0.0000000000
           5                            0.4661071028        0.0000000000
          39                           -0.1568349238        0.0000000000
          49                            0.1568349238        0.0000000000

       99 elements with absolute value ≤ 1.00D-01 are not printed.

 Printout of coefficients in interval  3.1623E-01 to  1.0000E+00
 ===============================================================

  Coefficient of CSF no.         2 is      0.49905681    4.99056809E-01
  Orbital          1   3
  Spin coupling    2   2

  Coefficient of CSF no.         3 is     -0.46610710   -4.66107103E-01
  Orbital          2   3
  Spin coupling    2   2

  Coefficient of CSF no.         4 is     -0.49905681   -4.99056809E-01
  Orbital          1   4
  Spin coupling    2   2

  Coefficient of CSF no.         5 is      0.46610710    4.66107103E-01
  Orbital          2   4
  Spin coupling    2   2

 Printout of coefficients in interval  1.0000E-01 to  3.1623E-01
 ===============================================================

  Coefficient of CSF no.        39 is     -0.15683492   -1.56834924E-01
  Orbital          3   1   5
  Spin coupling    2   1  -1

  Coefficient of CSF no.        49 is      0.15683492    1.56834924E-01
  Orbital          4   1   5
  Spin coupling    2   1  -1

 Norm of printed CI vector ..      0.98182145

 Magnitude of CI coefficients
 ============================
 ( Ranges are relative to norm of vector :  1.00E+00 )

  10- 1 to 10- 0         6    0.98182145E+00      0.9818214467
  10- 2 to 10- 1         6    0.18021734E-01      0.9998431802
  10- 3 to 10- 2         6    0.15616589E-03      0.9999993461
  10- 4 to 10- 3         2    0.65394445E-06      1.0000000000
  Number of coefficients less than 10^-11 times norm is           85


 @ Excited state no:    7 in symmetry 1  ( A  ) - singlet excitation
 -------------------------------------------------------------------

@ Excitation energy :  0.57659932     au
@                       15.690066     eV;   126548.92     cm-1;   1513.8613     kJ / mol

@ Total energy :       -15.018179     au

@ Operator label: XDIPLEN ; Transition moment :  1.67570772E-15 au
@ Oscillator strength (LENGTH)   :  1.07939253E-30  (X-polarization)

@ Operator label: YDIPLEN ; Transition moment : -4.58916232E-17 au
@ Oscillator strength (LENGTH)   :  8.09561244E-34  (Y-polarization)

@ Operator label: ZDIPLEN ; Transition moment :  1.77013849E-16 au
@ Oscillator strength (LENGTH)   :  1.20447381E-32  (Z-polarization)
@ Total oscillator strength (LENGTH)   :  1.09224683E-30

 Eigenvector for state no.  7

      Index(conf)                         Z operator          Y operator
      ----------                      --------------      --------------
           2                            0.2760561536        0.0000000000
           3                           -0.2578298334        0.0000000000
           4                           -0.2760561536        0.0000000000
           5                            0.2578298334        0.0000000000
          18                            0.5882930342        0.0000000000
          28                           -0.5494515990        0.0000000000
          82                           -0.1601095104        0.0000000000

       98 elements with absolute value ≤ 1.00D-01 are not printed.

 Printout of coefficients in interval  3.1623E-01 to  1.0000E+00
 ===============================================================

  Coefficient of CSF no.        18 is      0.58829303    5.88293034E-01
  Orbital          1   3   4
  Spin coupling    2   1  -1

  Coefficient of CSF no.        28 is     -0.54945160   -5.49451599E-01
  Orbital          2   3   4
  Spin coupling    2   1  -1

 Printout of coefficients in interval  1.0000E-01 to  3.1623E-01
 ===============================================================

  Coefficient of CSF no.         2 is      0.27605615    2.76056154E-01
  Orbital          1   3
  Spin coupling    2   2

  Coefficient of CSF no.         3 is     -0.25782983   -2.57829833E-01
  Orbital          2   3
  Spin coupling    2   2

  Coefficient of CSF no.         4 is     -0.27605615   -2.76056154E-01
  Orbital          1   4
  Spin coupling    2   2

  Coefficient of CSF no.         5 is      0.25782983    2.57829833E-01
  Orbital          2   4
  Spin coupling    2   2

  Coefficient of CSF no.        82 is     -0.16010951   -1.60109510E-01
  Orbital          1   3   4   5
  Spin coupling    1   1  -1  -1

 Norm of printed CI vector ..      0.95898725

 Magnitude of CI coefficients
 ============================
 ( Ranges are relative to norm of vector :  1.00E+00 )

  10- 1 to 10- 0         7    0.95898725E+00      0.9589872548
  10- 2 to 10- 1        10    0.40907624E-01      0.9998948785
  10- 3 to 10- 2         3    0.10512153E-03      1.0000000000
  Number of coefficients less than 10^-11 times norm is           85


 @ Excited state no:    8 in symmetry 1  ( A  ) - singlet excitation
 -------------------------------------------------------------------

@ Excitation energy :  0.59845931     au
@                       16.284906     eV;   131346.63     cm-1;   1571.2547     kJ / mol

@ Total energy :       -14.996319     au

@ Operator label: XDIPLEN ; Transition moment :  2.66648065E-15 au
@ Oscillator strength (LENGTH)   :  2.83674461E-30  (X-polarization)

@ Operator label: YDIPLEN ; Transition moment :  3.20576111E-16 au
@ Oscillator strength (LENGTH)   :  4.10020600E-32  (Y-polarization)

@ Operator label: ZDIPLEN ; Transition moment :  6.68463296E-19 au
@ Oscillator strength (LENGTH)   :  1.78278306E-37  (Z-polarization)
@ Total oscillator strength (LENGTH)   :  2.87774684E-30

 Eigenvector for state no.  8

      Index(conf)                         Z operator          Y operator
      ----------                      --------------      --------------
          76                           -0.9313945276        0.0000000000
          84                            0.1621486990        0.0000000000
          85                            0.2808497850        0.0000000000
          91                            0.1362342499        0.0000000000

      101 elements with absolute value ≤ 1.00D-01 are not printed.

 Printout of coefficients in interval  3.1623E-01 to  1.0000E+00
 ===============================================================

  Coefficient of CSF no.        76 is     -0.93139453   -9.31394528E-01
  Orbital          1   2   3   4
  Spin coupling    1   1  -1  -1

 Printout of coefficients in interval  1.0000E-01 to  3.1623E-01
 ===============================================================

  Coefficient of CSF no.        84 is      0.16214870    1.62148699E-01
  Orbital          2   3   4   5
  Spin coupling    1   1  -1  -1

  Coefficient of CSF no.        85 is      0.28084979    2.80849785E-01
  Orbital          2   3   4   5
  Spin coupling    1  -1   1  -1

  Coefficient of CSF no.        91 is      0.13623425    1.36234250E-01
  Orbital          1   3   4   6
  Spin coupling    1  -1   1  -1

 Norm of printed CI vector ..      0.99122434

 Magnitude of CI coefficients
 ============================
 ( Ranges are relative to norm of vector :  1.00E+00 )

[...]
          95                           -0.3625746856        0.0000000000

       97 elements with absolute value ≤ 1.00D-01 are not printed.

 Printout of coefficients in interval  3.1623E-01 to  1.0000E+00
 ===============================================================

  Coefficient of CSF no.        12 is      0.42563119    4.25631194E-01
  Orbital          2   6
  Spin coupling    2   2

  Coefficient of CSF no.        72 is     -0.61862989   -6.18629887E-01
  Orbital          6   1   5
  Spin coupling    2   1  -1

  Coefficient of CSF no.        95 is     -0.36257469   -3.62574686E-01
  Orbital          1   2   5   6
  Spin coupling    1  -1   1  -1

 Printout of coefficients in interval  1.0000E-01 to  3.1623E-01
 ===============================================================

  Coefficient of CSF no.        11 is      0.29005650    2.90056500E-01
  Orbital          1   6
  Spin coupling    2   2

  Coefficient of CSF no.        13 is      0.25358572    2.53585715E-01
  Orbital          3   6
  Spin coupling    2   2

  Coefficient of CSF no.        14 is      0.25358572    2.53585715E-01
  Orbital          4   6
  Spin coupling    2   2

  Coefficient of CSF no.        15 is     -0.23048630   -2.30486297E-01
  Orbital          5   6
  Spin coupling    2   2

  Coefficient of CSF no.        63 is     -0.13594108   -1.35941075E-01
  Orbital          5   2   6
  Spin coupling    2   1  -1

 Norm of printed CI vector ..      0.97967337

 Magnitude of CI coefficients
 ============================
 ( Ranges are relative to norm of vector :  1.00E+00 )

  10- 1 to 10- 0         8    0.97967337E+00      0.9796733650
  10- 2 to 10- 1        13    0.20218265E-01      0.9998916296
  10- 3 to 10- 2         4    0.10837035E-03      1.0000000000
  Number of coefficients less than 10^-11 times norm is           80


 @ Excited state no:   98 in symmetry 1  ( A  ) - singlet excitation
 -------------------------------------------------------------------

@ Excitation energy :   2.7440082     au
@                       74.668262     eV;   602240.19     cm-1;   7204.3925     kJ / mol

@ Total energy :       -12.850770     au

@ Operator label: XDIPLEN ; Transition moment :  5.45129672E-03 au
@ Oscillator strength (LENGTH)   :  5.43617957E-05  (X-polarization)

@ Operator label: YDIPLEN ; Transition moment :  1.67577471E-15 au
@ Oscillator strength (LENGTH)   :  5.13718748E-30  (Y-polarization)

@ Operator label: ZDIPLEN ; Transition moment :  1.97042370E-17 au
@ Oscillator strength (LENGTH)   :  7.10253522E-34  (Z-polarization)
@ Total oscillator strength (LENGTH)   :  5.43617957E-05

 Eigenvector for state no. 98

      Index(conf)                         Z operator          Y operator
      ----------                      --------------      --------------
          25                           -0.1277694229        0.0000000000
          35                           -0.2677399334        0.0000000000
          62                           -0.1122416548        0.0000000000
          66                            0.4523509376        0.0000000000
          73                           -0.8238828472        0.0000000000

      100 elements with absolute value ≤ 1.00D-01 are not printed.

 Printout of coefficients in interval  3.1623E-01 to  1.0000E+00
 ===============================================================

  Coefficient of CSF no.        66 is      0.45235094    4.52350938E-01
  Orbital          6   1   2
  Spin coupling    2   1  -1

  Coefficient of CSF no.        73 is     -0.82388285   -8.23882847E-01
  Orbital          6   2   5
  Spin coupling    2   1  -1

 Printout of coefficients in interval  1.0000E-01 to  3.1623E-01
 ===============================================================

  Coefficient of CSF no.        25 is     -0.12776942   -1.27769423E-01
  Orbital          1   5   6
  Spin coupling    2   1  -1

  Coefficient of CSF no.        35 is     -0.26773993   -2.67739933E-01
  Orbital          2   5   6
  Spin coupling    2   1  -1

  Coefficient of CSF no.        62 is     -0.11224165   -1.12241655E-01
  Orbital          5   1   6
  Spin coupling    2   1  -1

 Norm of printed CI vector ..      0.98401220

 Magnitude of CI coefficients
 ============================
 ( Ranges are relative to norm of vector :  1.00E+00 )

  10- 1 to 10- 0         5    0.98401220E+00      0.9840122032
  10- 2 to 10- 1        11    0.15987797E-01      1.0000000000
  Number of coefficients less than 10^-11 times norm is           89


 @ Excited state no:   99 in symmetry 1  ( A  ) - singlet excitation
 -------------------------------------------------------------------

@ Excitation energy :   2.7505117     au
@                       74.845230     eV;   603667.53     cm-1;   7221.4673     kJ / mol

@ Total energy :       -12.844267     au

@ Operator label: XDIPLEN ; Transition moment : -1.00143012E-15 au
@ Oscillator strength (LENGTH)   :  1.83892295E-30  (X-polarization)

@ Operator label: YDIPLEN ; Transition moment : -4.43240004E-17 au
@ Oscillator strength (LENGTH)   :  3.60246801E-33  (Y-polarization)

@ Operator label: ZDIPLEN ; Transition moment : -4.88381543E-16 au
@ Oscillator strength (LENGTH)   :  4.37361669E-31  (Z-polarization)
@ Total oscillator strength (LENGTH)   :  2.27988709E-30

 Eigenvector for state no. 99

      Index(conf)                         Z operator          Y operator
      ----------                      --------------      --------------
          61                           -0.1392674966        0.0000000000
          71                           -0.9750226825        0.0000000000

      103 elements with absolute value ≤ 1.00D-01 are not printed.

 Printout of coefficients in interval  3.1623E-01 to  1.0000E+00
 ===============================================================

  Coefficient of CSF no.        71 is     -0.97502268   -9.75022683E-01
  Orbital          6   3   4
  Spin coupling    2   1  -1

 Printout of coefficients in interval  1.0000E-01 to  3.1623E-01
 ===============================================================

  Coefficient of CSF no.        61 is     -0.13926750   -1.39267497E-01
  Orbital          5   3   4
  Spin coupling    2   1  -1

 Norm of printed CI vector ..      0.97006467

 Magnitude of CI coefficients
 ============================
 ( Ranges are relative to norm of vector :  1.00E+00 )

  10- 1 to 10- 0         2    0.97006467E+00      0.9700646670
  10- 2 to 10- 1        10    0.29708527E-01      0.9997731940
  10- 3 to 10- 2         8    0.22680596E-03      1.0000000000
  Number of coefficients less than 10^-11 times norm is           85


 @ Excited state no:  100 in symmetry 1  ( A  ) - singlet excitation
 -------------------------------------------------------------------

@ Excitation energy :   2.7505117     au
@                       74.845230     eV;   603667.53     cm-1;   7221.4673     kJ / mol

@ Total energy :       -12.844267     au

@ Operator label: XDIPLEN ; Transition moment : -1.63596104E-16 au
@ Oscillator strength (LENGTH)   :  4.90758855E-32  (X-polarization)

@ Operator label: YDIPLEN ; Transition moment : -2.18079040E-16 au
@ Oscillator strength (LENGTH)   :  8.72067466E-32  (Y-polarization)

@ Operator label: ZDIPLEN ; Transition moment : -3.38080452E-16 au
@ Oscillator strength (LENGTH)   :  2.09586041E-31  (Z-polarization)
@ Total oscillator strength (LENGTH)   :  3.45868673E-31

 Eigenvector for state no.100

      Index(conf)                         Z operator          Y operator
      ----------                      --------------      --------------
          13                            0.6891786320        0.0000000000
          14                           -0.6891786320        0.0000000000
          71                            0.1204682863        0.0000000000

      102 elements with absolute value ≤ 1.00D-01 are not printed.

 Printout of coefficients in interval  3.1623E-01 to  1.0000E+00
 ===============================================================

  Coefficient of CSF no.        13 is      0.68917863    6.89178632E-01
  Orbital          3   6
  Spin coupling    2   2

  Coefficient of CSF no.        14 is     -0.68917863   -6.89178632E-01
  Orbital          4   6
  Spin coupling    2   2

 Printout of coefficients in interval  1.0000E-01 to  3.1623E-01
 ===============================================================

  Coefficient of CSF no.        71 is      0.12046829    1.20468286E-01
  Orbital          6   3   4
  Spin coupling    2   1  -1

 Norm of printed CI vector ..      0.96444698

 Magnitude of CI coefficients
 ============================
 ( Ranges are relative to norm of vector :  1.00E+00 )

  10- 1 to 10- 0         3    0.96444698E+00      0.9644469815
  10- 2 to 10- 1        12    0.35425142E-01      0.9998721235
  10- 3 to 10- 2         5    0.12787653E-03      1.0000000000
  Number of coefficients less than 10^-11 times norm is           85


 @ Excited state no:  101 in symmetry 1  ( A  ) - singlet excitation
 -------------------------------------------------------------------

@ Excitation energy :   2.8321403     au
@                       77.066457     eV;   621582.93     cm-1;   7435.7831     kJ / mol

@ Total energy :       -12.762638     au

@ Operator label: XDIPLEN ; Transition moment :  1.98646296E-16 au
@ Oscillator strength (LENGTH)   :  7.45048320E-32  (X-polarization)

@ Operator label: YDIPLEN ; Transition moment : -1.10254864E-16 au
@ Oscillator strength (LENGTH)   :  2.29519198E-32  (Y-polarization)

@ Operator label: ZDIPLEN ; Transition moment :  2.94413784E-17 au
@ Oscillator strength (LENGTH)   :  1.63658956E-33  (Z-polarization)
@ Total oscillator strength (LENGTH)   :  9.90933414E-32

 Eigenvector for state no.101

      Index(conf)                         Z operator          Y operator
      ----------                      --------------      --------------
          12                           -0.1125114764        0.0000000000
          13                            0.5826966872        0.0000000000
          14                            0.5826966872        0.0000000000
          15                           -0.2227153201        0.0000000000
          72                            0.4804203611        0.0000000000

      100 elements with absolute value ≤ 1.00D-01 are not printed.

 Printout of coefficients in interval  3.1623E-01 to  1.0000E+00
 ===============================================================

  Coefficient of CSF no.        13 is      0.58269669    5.82696687E-01
  Orbital          3   6
  Spin coupling    2   2

  Coefficient of CSF no.        14 is      0.58269669    5.82696687E-01
  Orbital          4   6
  Spin coupling    2   2

  Coefficient of CSF no.        72 is      0.48042036    4.80420361E-01
  Orbital          6   1   5
  Spin coupling    2   1  -1

 Printout of coefficients in interval  1.0000E-01 to  3.1623E-01
 ===============================================================

  Coefficient of CSF no.        12 is     -0.11251148   -1.12511476E-01
  Orbital          2   6
  Spin coupling    2   2

  Coefficient of CSF no.        15 is     -0.22271532   -2.22715320E-01
  Orbital          5   6
  Spin coupling    2   2

 Norm of printed CI vector ..      0.97213553

 Magnitude of CI coefficients
 ============================
 ( Ranges are relative to norm of vector :  1.00E+00 )

  10- 1 to 10- 0         5    0.97213553E+00      0.9721355279
  10- 2 to 10- 1        17    0.27750325E-01      0.9998858533
  10- 3 to 10- 2         2    0.11319148E-03      0.9999990447
  10- 4 to 10- 3         1    0.95525499E-06      1.0000000000
  Number of coefficients less than 10^-11 times norm is           80


 @ Excited state no:  102 in symmetry 1  ( A  ) - singlet excitation
 -------------------------------------------------------------------

@ Excitation energy :   2.9124288     au
@                       79.251220     eV;   639204.24     cm-1;   7646.5807     kJ / mol

@ Total energy :       -12.682350     au

@ Operator label: XDIPLEN ; Transition moment :  5.71854752E-16 au
@ Oscillator strength (LENGTH)   :  6.34944158E-31  (X-polarization)

@ Operator label: YDIPLEN ; Transition moment :  2.83605936E-04 au
@ Oscillator strength (LENGTH)   :  1.56168952E-07  (Y-polarization)

@ Operator label: ZDIPLEN ; Transition moment : -2.57478278E-05 au
@ Oscillator strength (LENGTH)   :  1.28719771E-09  (Z-polarization)
@ Total oscillator strength (LENGTH)   :  1.57456150E-07

 Eigenvector for state no.102

      Index(conf)                         Z operator          Y operator
      ----------                      --------------      --------------
          69                           -0.1814446421        0.0000000000
          75                           -0.9681252238        0.0000000000
         103                           -0.1395495497        0.0000000000

      102 elements with absolute value ≤ 1.00D-01 are not printed.

 Printout of coefficients in interval  3.1623E-01 to  1.0000E+00
 ===============================================================

  Coefficient of CSF no.        75 is     -0.96812522   -9.68125224E-01
  Orbital          6   4   5
  Spin coupling    2   1  -1

 Printout of coefficients in interval  1.0000E-01 to  3.1623E-01
 ===============================================================

  Coefficient of CSF no.        69 is     -0.18144464   -1.81444642E-01
  Orbital          6   1   4
  Spin coupling    2   1  -1

  Coefficient of CSF no.       103 is     -0.13954955   -1.39549550E-01
  Orbital          2   4   5   6
  Spin coupling    1  -1   1  -1

 Norm of printed CI vector ..      0.98966268

 Magnitude of CI coefficients
 ============================
 ( Ranges are relative to norm of vector :  1.00E+00 )

  10- 1 to 10- 0         3    0.98966268E+00      0.9896626839
  10- 2 to 10- 1         8    0.10224804E-01      0.9998874883
  10- 3 to 10- 2         4    0.11158693E-03      0.9999990753
  10- 4 to 10- 3         8    0.92271168E-06      0.9999999980
  10- 5 to 10- 4         1    0.20103604E-08      1.0000000000
  Number of coefficients less than 10^-11 times norm is           81


 @ Excited state no:  103 in symmetry 1  ( A  ) - singlet excitation
 -------------------------------------------------------------------

@ Excitation energy :   2.9124288     au
@                       79.251220     eV;   639204.24     cm-1;   7646.5807     kJ / mol

@ Total energy :       -12.682350     au

@ Operator label: XDIPLEN ; Transition moment :  7.15258994E-16 au
@ Oscillator strength (LENGTH)   :  9.93323519E-31  (X-polarization)

@ Operator label: YDIPLEN ; Transition moment : -1.94435139E-05 au
@ Oscillator strength (LENGTH)   :  7.34029597E-10  (Y-polarization)

@ Operator label: ZDIPLEN ; Transition moment : -2.84107774E-04 au
@ Oscillator strength (LENGTH)   :  1.56722120E-07  (Z-polarization)
@ Total oscillator strength (LENGTH)   :  1.57456150E-07

 Eigenvector for state no.103

      Index(conf)                         Z operator          Y operator
      ----------                      --------------      --------------
          67                           -0.1813616211        0.0000000000
          74                           -0.9676822528        0.0000000000
          99                           -0.1394856981        0.0000000000

      102 elements with absolute value ≤ 1.00D-01 are not printed.

 Printout of coefficients in interval  3.1623E-01 to  1.0000E+00
 ===============================================================

  Coefficient of CSF no.        74 is     -0.96768225   -9.67682253E-01
  Orbital          6   3   5
  Spin coupling    2   1  -1

 Printout of coefficients in interval  1.0000E-01 to  3.1623E-01
 ===============================================================

  Coefficient of CSF no.        67 is     -0.18136162   -1.81361621E-01
  Orbital          6   1   3
  Spin coupling    2   1  -1

  Coefficient of CSF no.        99 is     -0.13948570   -1.39485698E-01
  Orbital          2   3   5   6
  Spin coupling    1  -1   1  -1

 Norm of printed CI vector ..      0.98875724

 Magnitude of CI coefficients
 ============================
 ( Ranges are relative to norm of vector :  1.00E+00 )

  10- 1 to 10- 0         3    0.98875724E+00      0.9887572400
  10- 2 to 10- 1         9    0.11157538E-01      0.9999147775
  10- 3 to 10- 2         6    0.82757048E-04      0.9999975346
  10- 4 to 10- 3         6    0.24654429E-05      1.0000000000
  Number of coefficients less than 10^-11 times norm is           81


 @ Excited state no:  104 in symmetry 1  ( A  ) - singlet excitation
 -------------------------------------------------------------------

@ Excitation energy :   3.0640062     au
@                       83.375849     eV;   672471.62     cm-1;   8044.5470     kJ / mol

@ Total energy :       -12.530772     au

@ Operator label: XDIPLEN ; Transition moment : -1.35896090E-16 au
@ Oscillator strength (LENGTH)   :  3.77235279E-32  (X-polarization)

@ Operator label: YDIPLEN ; Transition moment : -1.29689730E-16 au
@ Oscillator strength (LENGTH)   :  3.43565500E-32  (Y-polarization)

@ Operator label: ZDIPLEN ; Transition moment :  4.16766943E-18 au
@ Oscillator strength (LENGTH)   :  3.54801057E-35  (Z-polarization)
@ Total oscillator strength (LENGTH)   :  7.21155581E-32

 Eigenvector for state no.104

      Index(conf)                         Z operator          Y operator
      ----------                      --------------      --------------
          11                            0.1121369098        0.0000000000
          12                            0.1186470902        0.0000000000
          13                            0.2005423255        0.0000000000
          14                            0.2005423255        0.0000000000
          15                            0.9366016197        0.0000000000

      100 elements with absolute value ≤ 1.00D-01 are not printed.

 Printout of coefficients in interval  3.1623E-01 to  1.0000E+00
 ===============================================================

  Coefficient of CSF no.        15 is      0.93660162    9.36601620E-01
  Orbital          5   6
  Spin coupling    2   2

 Printout of coefficients in interval  1.0000E-01 to  3.1623E-01
 ===============================================================

  Coefficient of CSF no.        11 is      0.11213691    1.12136910E-01
  Orbital          1   6
  Spin coupling    2   2

  Coefficient of CSF no.        12 is      0.11864709    1.18647090E-01
  Orbital          2   6
  Spin coupling    2   2

  Coefficient of CSF no.        13 is      0.20054233    2.00542326E-01
  Orbital          3   6
  Spin coupling    2   2

  Coefficient of CSF no.        14 is      0.20054233    2.00542326E-01
  Orbital          4   6
  Spin coupling    2   2

 Norm of printed CI vector ..      0.98430886

 Magnitude of CI coefficients
 ============================
 ( Ranges are relative to norm of vector :  1.00E+00 )

  10- 1 to 10- 0         5    0.98430886E+00      0.9843088612
  10- 2 to 10- 1        13    0.15342551E-01      0.9996514123
  10- 3 to 10- 2         7    0.34858766E-03      1.0000000000
  Number of coefficients less than 10^-11 times norm is           80


 Time used in polarization propagator calculation is      0.11 CPU seconds for symmetry 1

  Total CPU  time used in RESPONSE:   0.13 seconds
  Total wall time used in RESPONSE:   0.39 seconds


                   .-------------------------------------------.
                   | End of Dynamic Property Section (RESPONS) |
                   `-------------------------------------------'

  Total CPU  time used in DALTON:   0.25 seconds
  Total wall time used in DALTON:   1.79 seconds

 NOTE:    1 warnings have been issued.
 Check output, result, and error files for "WARNING".

 
     Date and time (Linux)  : Tue Jul  7 17:01:41 2026
     Host name              : n-62-11-61                              
