

     ************************************************************************
     *************** Dalton - An Electronic Structure Program ***************
     ************************************************************************

    This is output from DALTON release Dalton2024.0-dev (2024)
         ( Web site: http://daltonprogram.org )

   ----------------------------------------------------------------------------

    NOTE:
     
    Dalton is an experimental code for the evaluation of molecular
    properties using (MC)SCF, DFT, CI, and CC wave functions.
    The authors accept no responsibility for the performance of
    the code or for the correctness of the results.
     
    The code (in whole or part) is provided under a licence and
    is not to be reproduced for further distribution without
    the written permission of the authors or their representatives.
     
    See the home page "http://daltonprogram.org" for further information.
     
    If results obtained with this code are published,
    the appropriate citations would be both of:
     
       K. Aidas, C. Angeli, K. L. Bak, V. Bakken,
       R. Bast, L. Boman, O. Christiansen, R. Cimiraglia,
       S. Coriani, P. Dahle, E. K. Dalskov, U. Ekstroem,
       T. Enevoldsen, J. J. Eriksen, P. Ettenhuber, B. Fernandez,
       L. Ferrighi, H. Fliegl, L. Frediani, K. Hald, A. Halkier,
       C. Haettig, H. Heiberg, T. Helgaker, A. C. Hennum,
       H. Hettema, E. Hjertenaes, S. Hoest, I.-M. Hoeyvik,
       M. F. Iozzi, B. Jansik, H. J. Aa. Jensen, D. Jonsson,
       P. Joergensen, J. Kauczor, S. Kirpekar,
       T. Kjaergaard, W. Klopper, S. Knecht, R. Kobayashi, H. Koch,
       J. Kongsted, A. Krapp, K. Kristensen, A. Ligabue,
       O. B. Lutnaes, J. I. Melo, K. V. Mikkelsen, R. H. Myhre,
       C. Neiss, C. B. Nielsen, P. Norman, J. Olsen,
       J. M. H. Olsen, A. Osted, M. J. Packer, F. Pawlowski,
       T. B. Pedersen, P. F. Provasi, S. Reine, Z. Rinkevicius,
       T. A. Ruden, K. Ruud, V. Rybkin, P. Salek, C. C. M. Samson,
       A. Sanchez de Meras, T. Saue, S. P. A. Sauer,
       B. Schimmelpfennig, K. Sneskov, A. H. Steindal,
       K. O. Sylvester-Hvid, P. R. Taylor, A. M. Teale,
       E. I. Tellgren, D. P. Tew, A. J. Thorvaldsen, L. Thoegersen,
       O. Vahtras, M. A. Watson, D. J. D. Wilson, M. Ziolkowski
       and H. Agren,
       "The Dalton quantum chemistry program system",
       WIREs Comput. Mol. Sci. 2014, 4:269-284 (doi: 10.1002/wcms.1172)
     
    and
     
       Dalton, a molecular electronic structure program,
       Release Dalton2024.0-dev (2024), see http://daltonprogram.org
   ----------------------------------------------------------------------------

    Authors in alphabetical order (Major contribution(s) in parenthesis):

  Kestutis Aidas,              Vilnius University,        Lithuania   (QM/MM)
  Celestino Angeli,            University of Ferrara,     Italy       (NEVPT2)
  Juan J. Aucar,               Northeast National UniversiArgentina   (LRESC, Relativistic Effects on EFG)
  Keld L. Bak,                 UNI-C,                     Denmark     (AOSOPPA, non-adiabatic coupling, magnetic properties)
  Vebjoern Bakken,             University of Oslo,        Norway      (DALTON; geometry optimizer, symmetry detection)
  Radovan Bast,                UiT The Arctic U. of NorwayNorway      (DALTON installation and execution frameworks)
  Pablo Baudin,                University of Valencia,    Spain       (Cholesky excitation energies)
  Linus Boman,                 NTNU,                      Norway      (Cholesky decomposition and subsystems)
  Bruno N. Cabral Tenorio,     Technical Univ. of Denmark,Denmark     (Lanczos-based CC methods)
  Ove Christiansen,            Aarhus University,         Denmark     (CC module)
  Renzo Cimiraglia,            University of Ferrara,     Italy       (NEVPT2)
  Sonia Coriani,               Technical Univ. of Denmark,Denmark     (CC and RESPONS modules)
  Janusz Cukras,               University of Warsaw,      Poland      (MChD in RESPONS)
  Paal Dahle,                  University of Oslo,        Norway      (Parallelization)
  Erik K. Dalskov,             UNI-C,                     Denmark     (SOPPA)
  Thomas Enevoldsen,           Univ. of Southern Denmark, Denmark     (SOPPA)
  Janus J. Eriksen,            Aarhus University,         Denmark     (Polarizable embedding, TDA)
  Rasmus Faber,                Technical Univ. of Denmark,Denmark     (Vib.avg. NMR w. SOPPA, parallel AO-SOPPA, CVS-CC and EOMCC)
  Tobias Fahleson,             KTH Stockholm,             Sweden      (Damped cubic response)
  Berta Fernandez,             U. of Santiago de CompostelSpain       (Doublet spin, ESR in RESPONS)
  Lara Ferrighi,               Aarhus University,         Denmark     (PCM Cubic response)
  Heike Fliegl,                University of Oslo,        Norway      (CCSD(R12))
  Luca Frediani,               UiT The Arctic U. of NorwayNorway      (PCM)
  Emmanuel Fromager,           Univ. Strasbourg,          France      (MC-srDFT)
  Bin Gao,                     UiT The Arctic U. of NorwayNorway      (Gen1Int library)
  Andre S. P. Gomes,           CNRS/Universite de Lille,  France      (Frozen density embedding)
  Christof Haettig,            Ruhr-University Bochum,    Germany     (CC module)
  Kasper Hald,                 Aarhus University,         Denmark     (CC module)
  Asger Halkier,               Aarhus University,         Denmark     (CC module)
  Frederik Beyer Hansen,       University of Copenhagen,  Denmark     (Parallel AO-SOPPA)
  Erik D. Hedegaard,           Univ. of Southern Denmark, Denmark     (Polarizable embedding, QM/MM, and MC-srDFT)
  Hanne Heiberg,               University of Oslo,        Norway      (Geometry analysis, selected one-electron integrals)
  Trygve Helgaker,             University of Oslo,        Norway      (DALTON; ABACUS, ERI, DFT modules, London, and much more)
  Alf Christian Hennum,        University of Oslo,        Norway      (Parity violation)
  Hinne Hettema,               University of Auckland,    New Zealand (Quadratic response in RESPONS; SIRIUS supersymmetry)
  Andreas E. Hillers-Bendtsen, University of Copenhagen,  Denmark     (MP3)
  Eirik Hjertenaes,            NTNU,                      Norway      (Cholesky decomposition)
  Nicolai Machholdt Hoeyer,    Aarhus University,         Denmark     (MP3)
  Pi A. B. Haase,              University of Copenhagen,  Denmark     (Triplet AO-SOPPA)
  Maria Francesca Iozzi,       University of Oslo,        Norway      (RPA)
  Christoph Jacob,             TU Braunschweig            Germany     (Frozen density embedding)
  Brano Jansik,                Technical Univ. of Ostrava Czech Rep.  (DFT cubic response)
  Hans Joergen Aa. Jensen,     Univ. of Southern Denmark, Denmark     (DALTON; SIRIUS, RESPONS, ABACUS, MC-srDFT, and much more)
  Dan Jonsson,                 UiT The Arctic U. of NorwayNorway      (Cubic response in RESPONS module)
  Poul Joergensen,             Aarhus University,         Denmark     (RESPONS, ABACUS, and CC modules)
  Maciej Kaminski,             University of Warsaw,      Poland      (CPPh in RESPONS)
  Joanna Kauczor,              Linkoeping University,     Sweden      (Complex polarization propagator (CPP) module)
  Sheela Kirpekar,             Univ. of Southern Denmark, Denmark     (Mass-velocity & Darwin integrals)
  Frederik Oersted Kjeldal,    Technical Univ. of Denmark,Denmark     (MP3)
  Erik Kjellgren,              Univ. of Southern Denmark, Denmark     (MC-srDFT)
  Wim Klopper,                 KIT Karlsruhe,             Germany     (R12 code in CC, SIRIUS, and ABACUS modules)
  Stefan Knecht,               ETH Zurich,                Switzerland (Parallel CI and MCSCF, MC-srDFT)
  Rika Kobayashi,              Australian National Univ., Australia   (DIIS in CC, London in MCSCF)
  Henrik Koch,                 NTNU,                      Norway      (CC module, Cholesky decomposition)
  Jacob Kongsted,              Univ. of Southern Denmark, Denmark     (Polarizable embedding, polarizable density embedding, QM/MM)
  Andrea Ligabue,              University of Modena,      Italy       (CTOCD, AOSOPPA)
  Nanna H. List,               Univ. of Southern Denmark, Denmark     (Polarizable embedding)
  Ola B. Lutnaes,              University of Oslo,        Norway      (DFT Hessian)
  Juan I. Melo,                University of Buenos Aires,Argentina   (LRESC, Relativistic Effects on NMR Shieldings)
  Kurt V. Mikkelsen,           University of Copenhagen,  Denmark     (MC-SCRF, QM/MM, and MP3)
  Rolf H. Myhre,               NTNU,                      Norway      (Subsystems and CC3)
  Christian Neiss,             Univ. Erlangen-Nuernberg,  Germany     (CCSD(R12))
  Christian B. Nielsen,        University of Copenhagen,  Denmark     (QM/MM)
  Patrick Norman,              KTH Stockholm,             Sweden      (Cubic response and complex frequency response in RESPONS)
  Jeppe Olsen,                 Aarhus University,         Denmark     (SIRIUS CI/density modules)
  Jogvan Magnus H. Olsen,      Aarhus University,         Denmark     (Polarizable embedding and polarizable density embedding)
  Anders Osted,                Copenhagen University,     Denmark     (QM/MM)
  Martin J. Packer,            University of Sheffield,   UK          (SOPPA)
  Filip Pawlowski,             Kazimierz Wielki UniversityPoland      (CC3)
  Morten N. Pedersen,          Univ. of Southern Denmark, Denmark     (Polarizable embedding)
  Thomas B. Pedersen,          University of Oslo,        Norway      (Cholesky decomposition)
  Patricio F. Provasi,         University of Northeastern,Argentina   (Analysis of coupling constants in localized orbitals)
  Peter Reinholdt,             Univ. of Southern Denmark, Denmark     (Polarizable embedding and polarizable density embedding)
  Zilvinas Rinkevicius,        KTH Stockholm,             Sweden      (open-shell DFT, ESR)
  Elias Rudberg,               KTH Stockholm,             Sweden      (DFT grid and basis info)
  Torgeir A. Ruden,            University of Oslo,        Norway      (Numerical derivatives in ABACUS)
  Kenneth Ruud,                UiT The Arctic U. of NorwayNorway      (DALTON; ABACUS magnetic properties and much more)
  Pawel Salek,                 KTH Stockholm,             Sweden      (DALTON; DFT code)
  Claire C. M. Samson,         University of Karlsruhe    Germany     (Boys localization, r12 integrals in ERI)
  Alfredo Sanchez de Meras,    University of Valencia,    Spain       (CC module, Cholesky decomposition)
  Trond Saue,                  Paul Sabatier University,  France      (direct Fock matrix construction)
  Stephan P. A. Sauer,         University of Copenhagen,  Denmark     (SOPPA(CCSD), SOPPA prop., AOSOPPA, vibrational g-factors)
  Bernd Schimmelpfennig,       Forschungszentrum KarlsruheGermany     (AMFI module)
  Anna K. Schnack-Petersen,    University of Copenhagen,  Denmark     (RPA(D) and HRPA(D) properties in AOSOPPA)
  Kristian Sneskov,            Aarhus University,         Denmark     (Polarizable embedding, QM/MM)
  Arnfinn H. Steindal,         UiT The Arctic U. of NorwayNorway      (parallel QM/MM, polarizable embedding)
  Casper Steinmann,            Aalborg University,        Denmark     (QFIT, polarizable embedding)
  K. O. Sylvester-Hvid,        University of Copenhagen,  Denmark     (MC-SCRF)
  Peter R. Taylor,             VLSCI/Univ. of Melbourne,  Australia   (Symmetry handling ABACUS, integral transformation)
  Andrew M. Teale,             University of Nottingham,  England     (DFT-AC, DFT-D)
  David P. Tew,                University of Bristol,     England     (CCSD(R12))
  Julien Toulouse,             Sorbonne Univ.,            France      (MC-srDFT)
  Olav Vahtras,                KTH Stockholm,             Sweden      (Triplet response, spin-orbit, ESR, TDDFT, open-shell DFT)
  Lucas Visscher,              Vrije Universiteit AmsterdaNetherlands (Frozen density embedding)
  David J. Wilson,             La Trobe University,       Australia   (DFT Hessian and DFT magnetizabilities)
  Luna Zamok,                  University of Copenhagen,  Denmark     (Block Lanczos RPA solver in SOPPA module)
  Hans Agren,                  KTH Stockholm,             Sweden      (SIRIUS module, RESPONS, MC-SCRF solvation)
 --------------------------------------------------------------------------------

     Date and time (Linux)  : Tue Jul  7 10:39:30 2026
     Host name              : n-62-31-4                               

 * Work memory size             :   512000000 =  3.815 gigabytes.

 * Directories for basis set searches:
   1) /work3/jochar/DaltonTests
   2) /zhome/d7/7/119775/My_Codes/Dalton_Release/dalton/build_omp_nov24/basis


Compilation information
-----------------------

 Who compiled             | soco
 Host                     | hpclogin1
 System                   | Linux-6.1.112-1.el9.elrepo.x86_64
 CMake generator          | Unix Makefiles
 Processor                | x86_64
 64-bit integers          | OFF
 MPI                      | OFF
 Fortran compiler         | /appl/intel/2023.2.0.49397/compiler/2023.2.0/linux
                          | /bin/intel64/ifort
 Fortran compiler version | ifort (IFORT) 2021.10.0 20230609
 C compiler               | /appl/intel/2023.2.0.49397/compiler/2023.2.0/linux
                          | /bin/intel64/icc
 C compiler version       | icc (ICC) 2021.10.0 20230609
 C++ compiler             | /appl/intel/2023.2.0.49397/compiler/2023.2.0/linux
                          | /bin/intel64/icpc
 C++ compiler version     | icpc (ICC) 2021.10.0 20230609
 Static linking           | OFF
 Last Git revision        | a531ac4fbf115ebda1c90140ce3fd6aa236a2033
 Git branch               | master
 Configuration time       | 2024-11-14 11:23:30.470039

 * Sequential calculation.


   Content of the .dal input file
 ----------------------------------

**DALTON INPUT
.RUN WAVE FUNCTIONS   !tipo di calcolo
.RUN RESPONSE
**INTEGRALS
.DIPLEN               !integrali dell'operatore dipolo elettrico
**WAVE FUNCTION
.HF
.CI
!*PRINT
!.PRINTL
!   0 11
*SCF INP              !parte da Hartree-Fock
.DOUBLY OCCUPIED
3
.THRESH               !soglia di convergenza
 1.0D-10
*CONFIGURATION INPUT
.SPIN MULTIPLICITY
1
.SYMMETRY
1
.INACTIVE ORBITALS !the inner electrons are kept frozen
0
.CAS SPACE
6
.ELECTRONS
4
**RESPONS
*LINEAR
.THCLR
1.0d-9
.DIPLEN
.SINGLE RESIDUE
.ROOTS
300
**END OF INPUT


   Content of the .mol file
 ----------------------------

BASIS
STO-3G
test VQE
dalton test
Atomtypes=2 Angstrom Nosymmetry
Charge=4.0 Atoms=1
Be    0.0000000000000000  0.0000000000000000  0.0
Charge=1.0 Atoms=2
H     1.3300000000000000  0.0000000000000000  0.0
H    -1.3300000000000000  0.0000000000000000  0.0


       *******************************************************************
       *********** Output from DALTON general input processing ***********
       *******************************************************************

 --------------------------------------------------------------------------------
   Overall default print level:    0
   Print level for DALTON.STAT:    1

    HERMIT 1- and 2-electron integral sections will be executed
    "Old" integral transformation used (limited to max 255 basis functions)
    Wave function sections will be executed (SIRIUS module)
    Dynamic molecular response properties section will be executed (RESPONSE module)
 --------------------------------------------------------------------------------


   ****************************************************************************
   *************** Output of molecule and basis set information ***************
   ****************************************************************************


    The two title cards from your ".mol" input:
    --------------------------------------------------------------------------------
 1: test VQE
 2: dalton test
    --------------------------------------------------------------------------------

  Coordinates are entered in Angstrom and converted to atomic units.
          - Conversion factor : 1 bohr = 0.52917721 A

  Atomic type no.    1
  --------------------
  Nuclear charge:   4.00000
  Number of symmetry independent centers:    1
  Number of basis sets to read;    2
  Basis set file used for this atomic type with Z =   4 :
     "/zhome/d7/7/119775/My_Codes/Dalton_Release/dalton/build_omp_nov24/basis/STO-3G"

  Atomic type no.    2
  --------------------
  Nuclear charge:   1.00000
  Number of symmetry independent centers:    2
  Number of basis sets to read;    2
  Basis set file used for this atomic type with Z =   1 :
     "/zhome/d7/7/119775/My_Codes/Dalton_Release/dalton/build_omp_nov24/basis/STO-3G"


                         SYMGRP: Point group information
                         -------------------------------

@    Point group: C1 


                                 Isotopic Masses
                                 ---------------

                           Be          9.012183
                           H           1.007825
                           H           1.007825

                       Total mass:    11.027833 amu
                       Natural abundance:  99.970 %

 Center-of-mass coordinates (a.u.):    0.000000    0.000000    0.000000
 Center-of-mass coordinates (Angs):    0.000000    0.000000    0.000000


  Atoms and basis sets
  --------------------

  Number of atom types :    2
  Total number of atoms:    3

  Basis set used is "STO-3G" from the basis set library.

  label    atoms   charge   prim   cont     basis
  ----------------------------------------------------------------------
  Be          1    4.0000    15     5      [6s3p|2s1p]                                        
  H           2    1.0000     3     1      [3s|1s]                                            
  ----------------------------------------------------------------------
  total:      3    6.0000    21     7
  ----------------------------------------------------------------------

  Threshold for neglecting AO integrals:  1.00D-12


  Cartesian Coordinates (a.u.)
  ----------------------------

  Total number of coordinates:    9
  Be      :     1  x   0.0000000000    2  y   0.0000000000    3  z   0.0000000000
  H       :     4  x   2.5133357462    5  y   0.0000000000    6  z   0.0000000000
  H       :     7  x  -2.5133357462    8  y   0.0000000000    9  z   0.0000000000


   Interatomic separations (in Angstrom):
   --------------------------------------

            Be          H           H     
            ------      ------      ------
 Be    :    0.000000
 H     :    1.330000    0.000000
 H     :    1.330000    2.660000    0.000000


  Max    interatomic separation is    2.6600 Angstrom (    5.0267 Bohr)
  between atoms    3 and    2, "H     " and "H     ".

  Min HX interatomic separation is    1.3300 Angstrom (    2.5133 Bohr)


  Bond distances (Angstrom):
  --------------------------

                  atom 1     atom 2       distance
                  ------     ------       --------
  bond distance:  H          Be           1.330000
  bond distance:  H          Be           1.330000


  Bond angles (degrees):
  ----------------------

                  atom 1     atom 2     atom 3         angle
                  ------     ------     ------         -----
  bond angle:     H          Be         H            180.000




 Principal moments of inertia (u*A**2) and principal axes
 --------------------------------------------------------

   IA       0.000000          1.000000    0.000000    0.000000
   IB       3.565483          0.000000    1.000000    0.000000
   IC       3.565483          0.000000    0.000000    1.000000


 Rotational constants
 --------------------

@    The molecule is linear.

               B =       141742.08 MHz     (    4.728007 cm-1)


@  Nuclear repulsion energy :    3.381959617895 Hartree


                     .---------------------------------------.
                     | Starting in Integral Section (HERMIT) |
                     `---------------------------------------'



 ***************************************************************************************
 ****************** Output from **INTEGRALS input processing (HERMIT) ******************
 ***************************************************************************************



    *************************************************************************
    ****************** Output from HERMIT input processing ******************
    *************************************************************************


 Default print level:        1

 Calculation of one- and two-electron Hamiltonian integrals.

 The following one-electron property integrals are calculated as requested:
          - overlap integrals
          - dipole length integrals

 Center of mass  (bohr):      0.000000000000      0.000000000000      0.000000000000
 Operator center (bohr):      0.000000000000      0.000000000000      0.000000000000
 Gauge origin    (bohr):      0.000000000000      0.000000000000      0.000000000000
 Dipole origin   (bohr):      0.000000000000      0.000000000000      0.000000000000

Calculation of 2-electron integrals are postponed until they are needed.


     ************************************************************************
     ************************** Output from HERINT **************************
     ************************************************************************



                      Nuclear contribution to dipole moments
                      --------------------------------------

                 au               Debye          C m (/(10**-30)

      x      0.00000000         0.00000000         0.00000000
      y      0.00000000         0.00000000         0.00000000
      z      0.00000000         0.00000000         0.00000000


  Total CPU  time used in HERMIT:   0.01 seconds
  Total wall time used in HERMIT:   0.04 seconds


                        .----------------------------------.
                        | End of Integral Section (HERMIT) |
                        `----------------------------------'



                   .--------------------------------------------.
                   | Starting in Wave Function Section (SIRIUS) |
                   `--------------------------------------------'


     WARNING  Reference state is required for CI response and CI-NO
     WARNING  ".STATE" was not specified for "*CI INPUT",
     WARNING  the reference state is set to be state no.  1

 *** Output from Huckel module :

     Using EWMO model:          T
     Using EHT  model:          F
     Number of Huckel orbitals each symmetry:    7

 EWMO - Energy Weighted Maximum Overlap - is a Huckel type method,
        which normally is better than Extended Huckel Theory.
 Reference: Linderberg and Ohrn, Propagators in Quantum Chemistry (Wiley, 1973)

 Huckel EWMO eigenvalues for symmetry :  1
           -4.742490      -0.737104      -0.620322      -0.206000      -0.206000
           -0.103312      -0.044772

 **********************************************************************
 *SIRIUS* a direct, restricted step, second order MCSCF program       *
 **********************************************************************

 
     Date and time (Linux)  : Tue Jul  7 10:39:30 2026
     Host name              : n-62-31-4                               

 Title lines from ".mol" input file:
     test VQE
     dalton test

 Print level on unit LUPRI =   2 is   0
 Print level on unit LUW4  =   2 is   5

@    Configuration interaction calculation.

@    CI response calculation.

@    CI type: user specified active spaces.
@              Type: complete active space calculation (CAS).

@    This is a combination run starting with
@              a restricted, closed shell Hartree-Fock calculation


 Initial molecular orbitals are obtained according to
 ".MOSTART EWMO  " input option

     Wave function specification
     ============================
@    Wave function type        --- CI ---
@    Number of closed shell electrons           0
@    Number of electrons in active shells       4
@    Total charge of the molecule               2

@    Spin multiplicity and 2 M_S                1         0
@    Total number of symmetries                 1 (point group: C1 )
@    Reference state symmetry                   1 (irrep name : A  )

     Orbital specifications
     ======================
@    Abelian symmetry species          All |    1
@                                          |  A  
                                       --- |  ---
@    Inactive orbitals                   0 |    0
@    Active orbitals                     6 |    6
@    Secondary orbitals                  1 |    1
@    Total number of orbitals            7 |    7
@    Number of basis functions           7 |    7

      -- Initial occupation of symmetries is determined from user input.                      
      -- Initial occupation of symmetries is :
@    Occupied SCF orbitals               3 |    3

     Optimization information
     ========================
@    Number of configurations               105
@    Number of orbital rotations              0
     ------------------------------------------
@    Total number of variables              105

     Maximum number of CI iterations         25
     Threshold for CI convergence      1.00D-05
     Number of CI roots to converge           1

@    Reference state in CI response calculation :       1


 ***********************************************
 ***** DIIS acceleration of SCF iterations *****
 ***********************************************

 C1-DIIS algorithm; max error vectors =    8

 Iter      Total energy        Error norm    Delta(E)  DIIS dim.
 -----------------------------------------------------------------------------

Calculating AOSUPINT

---> (Re)generating AOTWOINT


     ************************************************************************
     ************************** Output from HERINT **************************
     ************************************************************************


 Threshold for neglecting two-electron integrals:  1.00D-12
 HERMIT - Number of two-electron integrals written:         166 ( 40.9% )
 HERMIT - Megabytes written:                              0.137

     (Precalculated AO two-electron integrals are transformed to P-supermatrix elements.
      Threshold for discarding integrals :  1.00D-12 )

@  1    -15.5145759008        6.49603D-01   -1.55D+01    1
      Virial theorem: -V/T =      1.975520
@    MULPOP   Be      0.65; H      -0.32; H      -0.32; 
   1  Level shift: doubly occupied orbital energies shifted by -2.00D-01
 -----------------------------------------------------------------------------
@  2    -15.5579306641        1.43159D-01   -4.34D-02    2
      Virial theorem: -V/T =      1.986257
@    MULPOP   Be      0.21; H      -0.10; H      -0.10; 
   2  Level shift: doubly occupied orbital energies shifted by -5.00D-02
 -----------------------------------------------------------------------------
@  3    -15.5600948861        5.75294D-03   -2.16D-03    3
      Virial theorem: -V/T =      1.987895
@    MULPOP   Be      0.09; H      -0.05; H      -0.05; 
   3  Level shift: doubly occupied orbital energies shifted by -1.25D-02
 -----------------------------------------------------------------------------
@  4    -15.5600983837        8.86200D-05   -3.50D-06    4
      Virial theorem: -V/T =      1.987937
@    MULPOP   Be      0.09; H      -0.04; H      -0.04; 
 -----------------------------------------------------------------------------
@  5    -15.5600983843        6.66856D-06   -5.65D-10    5
      Virial theorem: -V/T =      1.987937
@    MULPOP   Be      0.09; H      -0.04; H      -0.04; 
 -----------------------------------------------------------------------------
@  6    -15.5600983843        1.37662D-08   -6.20D-12    6
      Virial theorem: -V/T =      1.987937
@    MULPOP   Be      0.09; H      -0.04; H      -0.04; 
 -----------------------------------------------------------------------------
@  7    -15.5600983843        5.82242D-10   -3.55D-15    7
      Virial theorem: -V/T =      1.987937
@    MULPOP   Be      0.09; H      -0.04; H      -0.04; 
 -----------------------------------------------------------------------------
@  8    -15.5600983843        4.55102D-10    3.55D-15    8
      Virial theorem: -V/T =      1.987937
@    MULPOP   Be      0.09; H      -0.04; H      -0.04; 
 -----------------------------------------------------------------------------
@  9    -15.5600983843        5.92420D-09    0.00D+00    8
      Virial theorem: -V/T =      1.987937
@    MULPOP   Be      0.09; H      -0.04; H      -0.04; 
 -----------------------------------------------------------------------------
@ 10    -15.5600983843        1.06280D-12   -7.11D-15    8

@ *** DIIS converged in  10 iterations !
@     Converged SCF energy, gradient:    -15.560098384318    1.06D-12
    - total time used in SIRFCK :              0.00 seconds

 --- Writing SIRIFC interface file

--------------------------------------------------------------------------------


     .--------------------------------------------------.
     | HF-SCF KT IPs [a.u. & eV] from Koopmans' theorem |
     `--------------------------------------------------'


     HF-SCF KT symmetry 1 ( A  ) in point group C1  -- 3 principal poles with pole strength 1

   ============  ============  ============
       4.519610      0.457702      0.421615
     122.984843     12.454710     11.472732
   ============  ============  ============

@ Summary of HF-SCF KT ionization potentials [eV]:

@ Symmetry 1 (A  ) :   122.985      12.455      11.473

  === End of HF-SCF KT output ===
--------------------------------------------------------------------------------


 CPU and wall time for SCF :       0.054       0.312


 ----- Output from SIRIUS CI module (CICTL) -----




 2-el. integral transformation level 0: Total CPU and WALL times (sec)       0.005       0.018

 (CIST1) 8 lowest diagonal elements:

 Element no. Config.no.    Active energy      Total energy

         1 :          1    -17.6637411300    -14.2817815121
         2 :         16    -17.6508184254    -14.2688588075
         3 :          2    -17.6280728577    -14.2461132398
         4 :         18    -17.3662540239    -13.9842944060
         5 :         20    -17.3662540239    -13.9842944060
         6 :         17    -17.3532034575    -13.9712438396
         7 :         19    -17.3532034575    -13.9712438396
         8 :         22    -17.1366874997    -13.7547278818


 (CIST1) number of start vectors is increased from  1 to  3 because of (near) degeneracy

Lowest 3 elements are used as separate start CI vectors.


 Convergence threshold for CI optimization :     0.00001000


 CI root     eigenvalue        residual norm

    1      -14.4293504016        0.1115703426

 CI root     eigenvalue        residual norm

    1      -14.4413450108        0.0144012302

 CI root     eigenvalue        residual norm

    1      -14.4414564326        0.0010306188

 CI root     eigenvalue        residual norm

    1      -14.4414567573        0.0000567671

 CI root     eigenvalue        residual norm

    1      -14.4414567579        0.0000023210 converged

 The requested root number is now converged.


 *** CI converged in  5 iterations.



@ Final CI energies and residuals in symmetry 1 (irrep A  )
@    1      -14.441456757937324       2.32D-06

 Writing SIRIFC interface file for CI root no. 1

 CPU and wall time for CI :       0.016       0.063


                       .-----------------------------------.
                       | --- Final results from SIRIUS --- |
                       `-----------------------------------'


@    Spin multiplicity:           1
@    Spatial symmetry:            1 ( irrep  A   in C1  )
@    Total charge of molecule:    2

@    This was a CI calculation.
@    State number:                1

@    Final CI energy:             -14.441456757937
@    Nuclear repulsion:             3.381959617895
@    Electronic energy:           -17.823416375832

@    Final gradient norm:           0.000002321014

 
     Date and time (Linux)  : Tue Jul  7 10:39:31 2026
     Host name              : n-62-31-4                               

 Occupancies of natural orbitals
 -------------------------------

 Symmetry 1  ( A  ) -- Total occupation in this symmetry is   4.000000000

   1.999950829   1.061002830   0.937363252   0.000765916   0.000765916
   0.000151257

  Effective numbers of unpaired electrons this symmetry Eqs. 1) and 2):  2.00  1.98

  Total effective number of unpaired electrons :
  Eq. 1) sum(i) [(2 - n_i) n_i]    =  1.9958
  Eq. 2) sum(i) [(2 - n_i) n_i]**2 =  1.9847
 (Reference: M. Head-Gordon, Chemical Physics Letters 372 (2003) 508-511)

  --- NOTE THAT THE OCCUPATION NUMBERS ARE FOR ANALYSIS PURPOSE ONLY
  --- The orbital coefficients have NOT been transformed
  --- to ordered natural orbitals.

File label for MO orbitals:   7Jul26    CIORB  

 (Only coefficients > 0.0100 are printed.)

 Molecular orbitals for symmetry species 1  (A  )
 ------------------------------------------------

    Orbital         1        2        3        4        5        6        7
   1 Be  :1s     0.9918  -0.2245   0.0000  -0.0000   0.0000  -0.2181  -0.0000
   2 Be  :1s     0.0318   0.5565  -0.0000  -0.0000  -0.0000   1.2335   0.0000
   3 Be  :2px    0.0000  -0.0000  -0.5035   0.0000  -0.0000  -0.0000   1.4589
   4 Be  :2py   -0.0000   0.0000  -0.0000   0.0999  -0.9950  -0.0000  -0.0000
   5 Be  :2pz    0.0000   0.0000  -0.0000   0.9950   0.0999   0.0000  -0.0000
   6 H   :1s    -0.0028   0.3945  -0.4047  -0.0000   0.0000  -0.8227  -1.0355
   7 H   :1s    -0.0028   0.3945   0.4047   0.0000   0.0000  -0.8227   1.0355

 Printout of CI-coefficients abs greater than 0.05000 for root  1
 *** NOTE: this root is the CI reference state ***

 Printout of coefficients in interval  3.1623E-01 to  1.0000E+00
 ===============================================================

  Coefficient of CSF no.         1 is      0.71885064    7.18850638E-01
  Orbital          1   2
  Spin coupling    2   2

  Coefficient of CSF no.         2 is     -0.68457833   -6.84578331E-01
  Orbital          1   3
  Spin coupling    2   2

 Printout of coefficients in interval  1.0000E-01 to  3.1623E-01
 ===============================================================

  Coefficient of CSF no.        22 is     -0.11747031   -1.17470306E-01
  Orbital          1   2   6
  Spin coupling    2   1  -1

 Printout of coefficients in interval  5.0000E-02 to  1.0000E-01
 ===============================================================
   ( no coefficients )

 Norm of printed CI vector ..      0.99919300

 Magnitude of CI coefficients
 ============================
 ( Ranges are relative to norm of vector :  1.00E+00 )

  10- 1 to 10- 0         3    0.99919300E+00      0.9991930038
  10- 2 to 10- 1         2    0.74565703E-03      0.9999386608
  10- 3 to 10- 2        12    0.58069673E-04      0.9999967305
  10- 4 to 10- 3         7    0.32602740E-05      0.9999999908
  10- 5 to 10- 4         3    0.92039001E-08      1.0000000000
  Number of coefficients less than 10^-11 times norm is           78

  Total CPU  time used in SIRIUS :   0.09 seconds
  Total wall time used in SIRIUS :   0.45 seconds

 
     Date and time (Linux)  : Tue Jul  7 10:39:31 2026
     Host name              : n-62-31-4                               


                     .---------------------------------------.
                     | End of Wave Function Section (SIRIUS) |
                     `---------------------------------------'



                 .------------------------------------------------.
                 | Starting in Dynamic Property Section (RESPONS) |
                 `------------------------------------------------'


 ----------------------------------------------------------------------------------------
  RESPONSE  -  an MCSCF, MC-srDFT, DFT, SOPPA and SOPPA-srDFT response property program
 ----------------------------------------------------------------------------------------

 This is a configuration interaction response calculation.
   Note: this is equivalent to a CI sum-over-states calculation of response properties.


 -------- OUTPUT FROM RESPONSE INPUT PROCESSING --------




  Linear Response single residue calculation
 -------------------------------------------


    4 input options by user.

 Print level                                    : IPRPP  =   2
 Maximum number of iterations for eigenval.eqs. : MAXITP =  60
 Threshold for convergence of eigenvalue eqs.   : THCPP  = 1.000D-03
 Maximum iterations in optimal orbital algorithm: MAXITO =   5

    300 Excitation energies are calculated for symmetry no.    1

      3 property residues are calculated with labels:

               XDIPLEN 
               YDIPLEN 
               ZDIPLEN 

 Old direct access AO file found, SORTA skipped.

 2-el. integral transformation level 4: Total CPU and WALL times (sec)       0.004       0.030


 CI energy            :      -14.441456757937324
 -- inactive part     :        3.381959617894736
 --   active part     :      -17.823416375832061
 -- nuclear repulsion :        3.381959617894736


                         *******************************
                         *** CI response calculation ***
                         *******************************

 ----------------------------------------------------------------
 ----- Linear response calculation
 ----- Symmetry of excitation/property operator(s)    1  ( A  )
 ----------------------------------------------------------------

 Number of excitations of this symmetry          300
 Number of response properties of this symmetry    0
 Number of C6/C8 properties of this symmetry       0


 Perturbation symmetry.     KSYMOP:           1
 Perturbation spin symmetry.TRPLET:           F
 Orbital variables.         KZWOPT:           0
 Configuration variables.   KZCONF:         105
 Total number of variables. KZVAR :         105

 ** RSPVAR ** Number of PP start vectors  300
   exceeds the maximum number of variables  104
   Number of start vectors reset to number of variables



 --- EXCITATION ENERGIES AND TRANSITION MOMENT CALCULATION (MCTDHF) ---

 Operator symmetry = 1  ( A  ); triplet =   F

RSPORT:    1 out of  105 new trial vectors linear dependent

 ** RSPCTL MICROITERATION NUMBER    1

      Root  Residual tot.,    conf., and orb.    Bnorm      Eigenvalue
      ----------------------------------------------------------------
         1    8.92546D-16  8.93D-16  0.00D+00  1.00D+00    2.99859D-01
         2    7.12878D-15  7.13D-15  0.00D+00  1.00D+00    3.07735D-01
         3    6.50143D-15  6.50D-15  0.00D+00  1.00D+00    4.71431D-01
         4    1.00860D-14  1.01D-14  0.00D+00  1.00D+00    4.71431D-01
         5    9.06066D-15  9.06D-15  0.00D+00  1.00D+00    4.91061D-01
         6    1.16783D-14  1.17D-14  0.00D+00  1.00D+00    4.91061D-01
         7    8.06755D-15  8.07D-15  0.00D+00  1.00D+00    7.45580D-01
         8    9.18952D-15  9.19D-15  0.00D+00  1.00D+00    8.09288D-01
         9    1.90825D-14  1.91D-14  0.00D+00  1.00D+00    8.66071D-01
        10    8.04940D-15  8.05D-15  0.00D+00  1.00D+00    8.66071D-01
        11    4.73022D-15  4.73D-15  0.00D+00  1.00D+00    9.54569D-01
        12    1.44295D-14  1.44D-14  0.00D+00  1.00D+00    1.07535D+00
        13    1.04161D-14  1.04D-14  0.00D+00  1.00D+00    1.07535D+00
        14    5.50296D-15  5.50D-15  0.00D+00  1.00D+00    1.26225D+00
        15    1.06375D-14  1.06D-14  0.00D+00  1.00D+00    4.21348D+00
        16    1.08881D-14  1.09D-14  0.00D+00  1.00D+00    4.32449D+00
        17    1.91619D-14  1.92D-14  0.00D+00  1.00D+00    4.42589D+00
        18    2.83415D-14  2.83D-14  0.00D+00  1.00D+00    4.42589D+00
        19    1.36185D-14  1.36D-14  0.00D+00  1.00D+00    4.47851D+00
        20    1.69672D-14  1.70D-14  0.00D+00  1.00D+00    4.47851D+00
        21    1.51323D-14  1.51D-14  0.00D+00  1.00D+00    4.69176D+00
        22    1.70329D-14  1.70D-14  0.00D+00  1.00D+00    4.69176D+00
        23    1.50604D-14  1.51D-14  0.00D+00  1.00D+00    4.69553D+00
        24    2.14579D-14  2.15D-14  0.00D+00  1.00D+00    4.69553D+00
        25    1.98594D-14  1.99D-14  0.00D+00  1.00D+00    4.73337D+00
        26    2.47302D-14  2.47D-14  0.00D+00  1.00D+00    4.80649D+00
        27    1.60060D-14  1.60D-14  0.00D+00  1.00D+00    4.84515D+00
        28    2.89495D-14  2.89D-14  0.00D+00  1.00D+00    4.84515D+00
        29    1.85167D-14  1.85D-14  0.00D+00  1.00D+00    4.84604D+00
        30    1.84821D-14  1.85D-14  0.00D+00  1.00D+00    4.84790D+00
        31    2.16608D-14  2.17D-14  0.00D+00  1.00D+00    4.84790D+00
        32    1.57877D-14  1.58D-14  0.00D+00  1.00D+00    4.87469D+00
        33    1.34245D-14  1.34D-14  0.00D+00  1.00D+00    4.89121D+00
        34    1.65927D-14  1.66D-14  0.00D+00  1.00D+00    4.99443D+00
        35    1.41539D-14  1.42D-14  0.00D+00  1.00D+00    5.03762D+00
        36    2.58458D-14  2.58D-14  0.00D+00  1.00D+00    5.05213D+00
        37    3.53305D-14  3.53D-14  0.00D+00  1.00D+00    5.11208D+00
        38    3.01435D-14  3.01D-14  0.00D+00  1.00D+00    5.11208D+00
        39    2.17602D-14  2.18D-14  0.00D+00  1.00D+00    5.11410D+00
        40    2.09029D-14  2.09D-14  0.00D+00  1.00D+00    5.11410D+00
        41    2.01092D-14  2.01D-14  0.00D+00  1.00D+00    5.14354D+00
        42    3.11435D-14  3.11D-14  0.00D+00  1.00D+00    5.14354D+00
        43    2.14381D-14  2.14D-14  0.00D+00  1.00D+00    5.26125D+00
        44    2.79640D-14  2.80D-14  0.00D+00  1.00D+00    5.26125D+00
        45    1.99153D-14  1.99D-14  0.00D+00  1.00D+00    5.27365D+00
        46    2.39369D-14  2.39D-14  0.00D+00  1.00D+00    5.27365D+00
        47    1.81726D-14  1.82D-14  0.00D+00  1.00D+00    5.37750D+00
        48    2.28140D-14  2.28D-14  0.00D+00  1.00D+00    5.37750D+00
        49    1.73234D-14  1.73D-14  0.00D+00  1.00D+00    5.43024D+00
        50    3.47433D-14  3.47D-14  0.00D+00  1.00D+00    5.43047D+00
        51    1.64280D-14  1.64D-14  0.00D+00  1.00D+00    5.53345D+00
        52    2.40841D-14  2.41D-14  0.00D+00  1.00D+00    5.53774D+00
        53    2.39282D-14  2.39D-14  0.00D+00  1.00D+00    5.69520D+00
        54    3.81278D-14  3.81D-14  0.00D+00  1.00D+00    5.69520D+00
        55    4.09840D-14  4.10D-14  0.00D+00  1.00D+00    1.00796D+01
        56    2.59372D-14  2.59D-14  0.00D+00  1.00D+00    1.01807D+01
        57    5.71418D-14  5.71D-14  0.00D+00  1.00D+00    1.01807D+01
        58    4.12897D-14  4.13D-14  0.00D+00  1.00D+00    1.03852D+01
        59    4.63191D-14  4.63D-14  0.00D+00  1.00D+00    1.03852D+01
        60    4.56949D-14  4.57D-14  0.00D+00  1.00D+00    1.03912D+01
        61    4.43357D-14  4.43D-14  0.00D+00  1.00D+00    1.03912D+01
        62    5.22511D-14  5.23D-14  0.00D+00  1.00D+00    1.04216D+01
        63    1.88603D-14  1.89D-14  0.00D+00  1.00D+00    1.04810D+01
        64    2.51701D-14  2.52D-14  0.00D+00  1.00D+00    1.06199D+01
        65    3.18246D-14  3.18D-14  0.00D+00  1.00D+00    1.06199D+01
        66    3.07932D-14  3.08D-14  0.00D+00  1.00D+00    1.06509D+01
        67    4.06670D-14  4.07D-14  0.00D+00  1.00D+00    1.06509D+01
        68    5.96319D-14  5.96D-14  0.00D+00  1.00D+00    1.06577D+01
        69    2.63986D-14  2.64D-14  0.00D+00  1.00D+00    1.06595D+01
        70    3.29755D-14  3.30D-14  0.00D+00  1.00D+00    1.07337D+01
        71    3.78340D-14  3.78D-14  0.00D+00  1.00D+00    1.07337D+01
        72    3.06135D-14  3.06D-14  0.00D+00  1.00D+00    1.07679D+01
        73    3.44209D-14  3.44D-14  0.00D+00  1.00D+00    1.07679D+01
        74    4.08083D-14  4.08D-14  0.00D+00  1.00D+00    1.08166D+01
        75    3.93556D-14  3.94D-14  0.00D+00  1.00D+00    1.08430D+01
        76    4.23606D-14  4.24D-14  0.00D+00  1.00D+00    1.08430D+01
        77    3.72759D-14  3.73D-14  0.00D+00  1.00D+00    1.08494D+01
        78    4.37457D-14  4.37D-14  0.00D+00  1.00D+00    1.09366D+01
        79    5.38326D-14  5.38D-14  0.00D+00  1.00D+00    1.09366D+01
        80    4.65954D-14  4.66D-14  0.00D+00  1.00D+00    1.10441D+01
        81    3.00177D-14  3.00D-14  0.00D+00  1.00D+00    1.10632D+01
        82    5.00815D-14  5.01D-14  0.00D+00  1.00D+00    1.10632D+01
        83    4.92435D-14  4.92D-14  0.00D+00  1.00D+00    1.11075D+01
        84    2.92310D-14  2.92D-14  0.00D+00  1.00D+00    1.11219D+01
        85    4.15651D-14  4.16D-14  0.00D+00  1.00D+00    1.11219D+01
        86    2.59575D-14  2.60D-14  0.00D+00  1.00D+00    1.11232D+01
        87    3.50327D-14  3.50D-14  0.00D+00  1.00D+00    1.11232D+01
        88    2.58419D-14  2.58D-14  0.00D+00  1.00D+00    1.11311D+01
        89    6.52139D-14  6.52D-14  0.00D+00  1.00D+00    1.12107D+01
        90    2.76804D-14  2.77D-14  0.00D+00  1.00D+00    1.12998D+01
        91    5.87899D-14  5.88D-14  0.00D+00  1.00D+00    1.12998D+01
        92    4.52696D-14  4.53D-14  0.00D+00  1.00D+00    1.13404D+01
        93    2.21117D-14  2.21D-14  0.00D+00  1.00D+00    1.13573D+01
        94    3.71601D-14  3.72D-14  0.00D+00  1.00D+00    1.13593D+01
        95    4.65144D-14  4.65D-14  0.00D+00  1.00D+00    1.13593D+01
        96    3.95263D-14  3.95D-14  0.00D+00  1.00D+00    1.15963D+01
        97    3.19332D-14  3.19D-14  0.00D+00  1.00D+00    1.16242D+01
        98    4.00404D-14  4.00D-14  0.00D+00  1.00D+00    1.16375D+01
        99    4.66833D-14  4.67D-14  0.00D+00  1.00D+00    1.16375D+01
       100    4.09426D-14  4.09D-14  0.00D+00  1.00D+00    1.16500D+01
       101    3.78191D-14  3.78D-14  0.00D+00  1.00D+00    1.16500D+01
       102    2.97780D-14  2.98D-14  0.00D+00  1.00D+00    1.17221D+01
       103    7.80318D-14  7.80D-14  0.00D+00  1.00D+00    1.17221D+01
       104    1.14597D-13  1.15D-13  0.00D+00  1.00D+00    1.18181D+01
       105    1.25323D-15  1.25D-15  0.00D+00  1.00D+00   -2.99859D-01

 *** THE REQUESTED  104 SOLUTION VECTORS CONVERGED

 Convergence of RSP solution vectors, threshold = 1.00D-03
 ---------------------------------------------------------------
 (dimension of paired reduced space:  208)
 RSP solution vector no.    1; norm of residual   8.93D-16
 RSP solution vector no.    2; norm of residual   7.13D-15
 RSP solution vector no.    3; norm of residual   6.50D-15
 RSP solution vector no.    4; norm of residual   1.01D-14
 RSP solution vector no.    5; norm of residual   9.06D-15
 RSP solution vector no.    6; norm of residual   1.17D-14
 RSP solution vector no.    7; norm of residual   8.07D-15
 RSP solution vector no.    8; norm of residual   9.19D-15
 RSP solution vector no.    9; norm of residual   1.91D-14
 RSP solution vector no.   10; norm of residual   8.05D-15
 RSP solution vector no.   11; norm of residual   4.73D-15
 RSP solution vector no.   12; norm of residual   1.44D-14
 RSP solution vector no.   13; norm of residual   1.04D-14
 RSP solution vector no.   14; norm of residual   5.50D-15
 RSP solution vector no.   15; norm of residual   1.06D-14
 RSP solution vector no.   16; norm of residual   1.09D-14
 RSP solution vector no.   17; norm of residual   1.92D-14
 RSP solution vector no.   18; norm of residual   2.83D-14
 RSP solution vector no.   19; norm of residual   1.36D-14
 RSP solution vector no.   20; norm of residual   1.70D-14
 RSP solution vector no.   21; norm of residual   1.51D-14
 RSP solution vector no.   22; norm of residual   1.70D-14
 RSP solution vector no.   23; norm of residual   1.51D-14
 RSP solution vector no.   24; norm of residual   2.15D-14
 RSP solution vector no.   25; norm of residual   1.99D-14
 RSP solution vector no.   26; norm of residual   2.47D-14
 RSP solution vector no.   27; norm of residual   1.60D-14
 RSP solution vector no.   28; norm of residual   2.89D-14
 RSP solution vector no.   29; norm of residual   1.85D-14
 RSP solution vector no.   30; norm of residual   1.85D-14
 RSP solution vector no.   31; norm of residual   2.17D-14
 RSP solution vector no.   32; norm of residual   1.58D-14
 RSP solution vector no.   33; norm of residual   1.34D-14
 RSP solution vector no.   34; norm of residual   1.66D-14
 RSP solution vector no.   35; norm of residual   1.42D-14
 RSP solution vector no.   36; norm of residual   2.58D-14
 RSP solution vector no.   37; norm of residual   3.53D-14
 RSP solution vector no.   38; norm of residual   3.01D-14
 RSP solution vector no.   39; norm of residual   2.18D-14
 RSP solution vector no.   40; norm of residual   2.09D-14
 RSP solution vector no.   41; norm of residual   2.01D-14
 RSP solution vector no.   42; norm of residual   3.11D-14
 RSP solution vector no.   43; norm of residual   2.14D-14
 RSP solution vector no.   44; norm of residual   2.80D-14
 RSP solution vector no.   45; norm of residual   1.99D-14
 RSP solution vector no.   46; norm of residual   2.39D-14
 RSP solution vector no.   47; norm of residual   1.82D-14
 RSP solution vector no.   48; norm of residual   2.28D-14
 RSP solution vector no.   49; norm of residual   1.73D-14
 RSP solution vector no.   50; norm of residual   3.47D-14
 RSP solution vector no.   51; norm of residual   1.64D-14
 RSP solution vector no.   52; norm of residual   2.41D-14
 RSP solution vector no.   53; norm of residual   2.39D-14
 RSP solution vector no.   54; norm of residual   3.81D-14
 RSP solution vector no.   55; norm of residual   4.10D-14
 RSP solution vector no.   56; norm of residual   2.59D-14
 RSP solution vector no.   57; norm of residual   5.71D-14
 RSP solution vector no.   58; norm of residual   4.13D-14
 RSP solution vector no.   59; norm of residual   4.63D-14
 RSP solution vector no.   60; norm of residual   4.57D-14
 RSP solution vector no.   61; norm of residual   4.43D-14
 RSP solution vector no.   62; norm of residual   5.23D-14
 RSP solution vector no.   63; norm of residual   1.89D-14
 RSP solution vector no.   64; norm of residual   2.52D-14
 RSP solution vector no.   65; norm of residual   3.18D-14
 RSP solution vector no.   66; norm of residual   3.08D-14
 RSP solution vector no.   67; norm of residual   4.07D-14
 RSP solution vector no.   68; norm of residual   5.96D-14
 RSP solution vector no.   69; norm of residual   2.64D-14
 RSP solution vector no.   70; norm of residual   3.30D-14
 RSP solution vector no.   71; norm of residual   3.78D-14
 RSP solution vector no.   72; norm of residual   3.06D-14
 RSP solution vector no.   73; norm of residual   3.44D-14
 RSP solution vector no.   74; norm of residual   4.08D-14
 RSP solution vector no.   75; norm of residual   3.94D-14
 RSP solution vector no.   76; norm of residual   4.24D-14
 RSP solution vector no.   77; norm of residual   3.73D-14
 RSP solution vector no.   78; norm of residual   4.37D-14
 RSP solution vector no.   79; norm of residual   5.38D-14
 RSP solution vector no.   80; norm of residual   4.66D-14
 RSP solution vector no.   81; norm of residual   3.00D-14
 RSP solution vector no.   82; norm of residual   5.01D-14
 RSP solution vector no.   83; norm of residual   4.92D-14
 RSP solution vector no.   84; norm of residual   2.92D-14
 RSP solution vector no.   85; norm of residual   4.16D-14
 RSP solution vector no.   86; norm of residual   2.60D-14
 RSP solution vector no.   87; norm of residual   3.50D-14
 RSP solution vector no.   88; norm of residual   2.58D-14
 RSP solution vector no.   89; norm of residual   6.52D-14
 RSP solution vector no.   90; norm of residual   2.77D-14
 RSP solution vector no.   91; norm of residual   5.88D-14
 RSP solution vector no.   92; norm of residual   4.53D-14
 RSP solution vector no.   93; norm of residual   2.21D-14
 RSP solution vector no.   94; norm of residual   3.72D-14
 RSP solution vector no.   95; norm of residual   4.65D-14
 RSP solution vector no.   96; norm of residual   3.95D-14
 RSP solution vector no.   97; norm of residual   3.19D-14
 RSP solution vector no.   98; norm of residual   4.00D-14
 RSP solution vector no.   99; norm of residual   4.67D-14
 RSP solution vector no.  100; norm of residual   4.09D-14
 RSP solution vector no.  101; norm of residual   3.78D-14
 RSP solution vector no.  102; norm of residual   2.98D-14
 RSP solution vector no.  103; norm of residual   7.80D-14
 RSP solution vector no.  104; norm of residual   1.15D-13

 *** RSPCTL MICROITERATIONS CONVERGED

@ Singlet transition operator label: XDIPLEN 
@ STATE NO:    1 *TRANSITION MOMENT: -2.84032427E-14 *ENERGY(eV):   8.1595718    
@ STATE NO:    2 *TRANSITION MOMENT:  0.42436226     *ENERGY(eV):   8.3738926    
@ STATE NO:    3 *TRANSITION MOMENT: -2.46632358E-15 *ENERGY(eV):   12.828281    
@ STATE NO:    4 *TRANSITION MOMENT: -1.17366738E-16 *ENERGY(eV):   12.828281    
@ STATE NO:    5 *TRANSITION MOMENT:  4.23940485E-16 *ENERGY(eV):   13.362444    
@ STATE NO:    6 *TRANSITION MOMENT:  9.65353023E-17 *ENERGY(eV):   13.362444    
@ STATE NO:    7 *TRANSITION MOMENT:  2.15197656E-14 *ENERGY(eV):   20.288274    
@ STATE NO:    8 *TRANSITION MOMENT: -0.77303608     *ENERGY(eV):   22.021858    
@ STATE NO:    9 *TRANSITION MOMENT:  4.38134200E-15 *ENERGY(eV):   23.566978    
@ STATE NO:   10 *TRANSITION MOMENT:  7.33925897E-15 *ENERGY(eV):   23.566978    
@ STATE NO:   11 *TRANSITION MOMENT:  5.42320975E-17 *ENERGY(eV):   25.975146    
@ STATE NO:   12 *TRANSITION MOMENT:  2.81957413E-15 *ENERGY(eV):   29.261855    
@ STATE NO:   13 *TRANSITION MOMENT: -1.44145326E-14 *ENERGY(eV):   29.261855    
@ STATE NO:   14 *TRANSITION MOMENT: -3.86998014E-15 *ENERGY(eV):   34.347569    
@ STATE NO:   15 *TRANSITION MOMENT:  9.54159455E-02 *ENERGY(eV):   114.65453    

@ Singlet transition operator label: YDIPLEN 
@ STATE NO:    1 *TRANSITION MOMENT:  1.84034904E-16 *ENERGY(eV):   8.1595718    
@ STATE NO:    2 *TRANSITION MOMENT:  1.99652353E-16 *ENERGY(eV):   8.3738926    
@ STATE NO:    3 *TRANSITION MOMENT:  6.51210953E-15 *ENERGY(eV):   12.828281    
@ STATE NO:    4 *TRANSITION MOMENT: -1.32192465E-14 *ENERGY(eV):   12.828281    
@ STATE NO:    5 *TRANSITION MOMENT: -0.30798083     *ENERGY(eV):   13.362444    
@ STATE NO:    6 *TRANSITION MOMENT: -0.80155316     *ENERGY(eV):   13.362444    
@ STATE NO:    7 *TRANSITION MOMENT:  1.05095248E-15 *ENERGY(eV):   20.288274    
@ STATE NO:    8 *TRANSITION MOMENT:  3.16969757E-15 *ENERGY(eV):   22.021858    
@ STATE NO:    9 *TRANSITION MOMENT: -1.50370027E-15 *ENERGY(eV):   23.566978    
@ STATE NO:   10 *TRANSITION MOMENT:  2.24324416E-15 *ENERGY(eV):   23.566978    
@ STATE NO:   11 *TRANSITION MOMENT:  2.49729267E-16 *ENERGY(eV):   25.975146    
@ STATE NO:   12 *TRANSITION MOMENT: -1.93140187E-02 *ENERGY(eV):   29.261855    
@ STATE NO:   13 *TRANSITION MOMENT: -4.48122193E-02 *ENERGY(eV):   29.261855    
@ STATE NO:   14 *TRANSITION MOMENT:  8.45215483E-17 *ENERGY(eV):   34.347569    
@ STATE NO:   15 *TRANSITION MOMENT: -3.33550393E-16 *ENERGY(eV):   114.65453    

@ Singlet transition operator label: ZDIPLEN 
@ STATE NO:    1 *TRANSITION MOMENT: -2.11264532E-18 *ENERGY(eV):   8.1595718    
@ STATE NO:    2 *TRANSITION MOMENT:  1.15341816E-16 *ENERGY(eV):   8.3738926    
@ STATE NO:    3 *TRANSITION MOMENT:  5.17443565E-15 *ENERGY(eV):   12.828281    
@ STATE NO:    4 *TRANSITION MOMENT:  9.84086468E-14 *ENERGY(eV):   12.828281    
@ STATE NO:    5 *TRANSITION MOMENT:  0.80002073     *ENERGY(eV):   13.362444    
@ STATE NO:    6 *TRANSITION MOMENT: -0.30397021     *ENERGY(eV):   13.362444    
@ STATE NO:    7 *TRANSITION MOMENT: -4.19152958E-16 *ENERGY(eV):   20.288274    
@ STATE NO:    8 *TRANSITION MOMENT:  2.98264491E-16 *ENERGY(eV):   22.021858    
@ STATE NO:    9 *TRANSITION MOMENT: -1.75512600E-15 *ENERGY(eV):   23.566978    
@ STATE NO:   10 *TRANSITION MOMENT:  3.62292436E-15 *ENERGY(eV):   23.566978    
@ STATE NO:   11 *TRANSITION MOMENT:  1.54004197E-16 *ENERGY(eV):   25.975146    
@ STATE NO:   12 *TRANSITION MOMENT:  4.88388500E-02 *ENERGY(eV):   29.261855    
@ STATE NO:   13 *TRANSITION MOMENT: -2.73884937E-02 *ENERGY(eV):   29.261855    
@ STATE NO:   14 *TRANSITION MOMENT: -1.24359092E-16 *ENERGY(eV):   34.347569    
@ STATE NO:   15 *TRANSITION MOMENT:  8.24720310E-17 *ENERGY(eV):   114.65453    


 **************************************************************************************
 *** @ Excit. operator sym 1 & ref. state sym 1 => excited state symmetry 1  ( A  ) ***
 **************************************************************************************



 @ Excited state no:    1 in symmetry 1  ( A  ) - singlet excitation
 -------------------------------------------------------------------

@ Excitation energy :  0.29985876     au
@                       8.1595718     eV;   65811.390     cm-1;   787.27905     kJ / mol

@ Total energy :       -14.141598     au

@ Operator label: XDIPLEN ; Transition moment : -2.84032427E-14 au
@ Oscillator strength (LENGTH)   :  1.61272874E-28  (X-polarization)

@ Operator label: YDIPLEN ; Transition moment :  1.84034904E-16 au
@ Oscillator strength (LENGTH)   :  6.77058003E-33  (Y-polarization)

@ Operator label: ZDIPLEN ; Transition moment : -2.11264532E-18 au
@ Oscillator strength (LENGTH)   :  8.92233780E-37  (Z-polarization)
@ Total oscillator strength (LENGTH)   :  1.61279646E-28

 Eigenvector for state no.  1

      Index(conf)                         Z operator          Y operator
      ----------                      --------------      --------------
           1                            0.6800760905        0.0000000000
           2                            0.6815177281        0.0000000000
          11                           -0.1053940362        0.0000000000
          22                            0.2171388536        0.0000000000

      101 elements with absolute value ≤ 1.00D-01 are not printed.

 Printout of coefficients in interval  3.1623E-01 to  1.0000E+00
 ===============================================================

  Coefficient of CSF no.         1 is      0.68007609    6.80076091E-01
  Orbital          1   2
  Spin coupling    2   2

  Coefficient of CSF no.         2 is      0.68151773    6.81517728E-01
  Orbital          1   3
  Spin coupling    2   2

 Printout of coefficients in interval  1.0000E-01 to  3.1623E-01
 ===============================================================

  Coefficient of CSF no.        11 is     -0.10539404   -1.05394036E-01
  Orbital          1   6
  Spin coupling    2   2

  Coefficient of CSF no.        22 is      0.21713885    2.17138854E-01
  Orbital          1   2   6
  Spin coupling    2   1  -1

 Norm of printed CI vector ..      0.98522709

 Magnitude of CI coefficients
 ============================
 ( Ranges are relative to norm of vector :  1.00E+00 )

  10- 1 to 10- 0         4    0.98522709E+00      0.9852270872
  10- 2 to 10- 1         2    0.14721129E-01      0.9999482164
  10- 3 to 10- 2         6    0.47440015E-04      0.9999956564
  10- 4 to 10- 3        15    0.43436304E-05      1.0000000000
  Number of coefficients less than 10^-11 times norm is           78


 @ Excited state no:    2 in symmetry 1  ( A  ) - singlet excitation
 -------------------------------------------------------------------

@ Excitation energy :  0.30773490     au
@                       8.3738926     eV;   67540.003     cm-1;   807.95786     kJ / mol

@ Total energy :       -14.133722     au

@ Operator label: XDIPLEN ; Transition moment :  0.42436226     au
@ Oscillator strength (LENGTH)   :  3.69452836E-02  (X-polarization)

@ Operator label: YDIPLEN ; Transition moment :  1.99652353E-16 au
@ Oscillator strength (LENGTH)   :  8.17775998E-33  (Y-polarization)

@ Operator label: ZDIPLEN ; Transition moment :  1.15341816E-16 au
@ Oscillator strength (LENGTH)   :  2.72934893E-33  (Z-polarization)
@ Total oscillator strength (LENGTH)   :  3.69452836E-02

 Eigenvector for state no.  2

      Index(conf)                         Z operator          Y operator
      ----------                      --------------      --------------
          16                           -0.9706527937        0.0000000000
          23                           -0.2403627695        0.0000000000

      103 elements with absolute value ≤ 1.00D-01 are not printed.

 Printout of coefficients in interval  3.1623E-01 to  1.0000E+00
 ===============================================================

  Coefficient of CSF no.        16 is     -0.97065279   -9.70652794E-01
  Orbital          1   2   3
  Spin coupling    2   1  -1

 Printout of coefficients in interval  1.0000E-01 to  3.1623E-01
 ===============================================================

  Coefficient of CSF no.        23 is     -0.24036277   -2.40362770E-01
  Orbital          1   3   6
  Spin coupling    2   1  -1

 Printout of coefficients in interval  1.0000E-01 to  1.0000E-01
 ===============================================================
   ( no coefficients )

 Norm of printed CI vector ..      0.99994111

 Magnitude of CI coefficients
 ============================
 ( Ranges are relative to norm of vector :  1.00E+00 )

  10- 1 to 10- 0         2    0.99994111E+00      0.9999411070
  10- 3 to 10- 2         7    0.57264099E-04      0.9999983711
  10- 4 to 10- 3         5    0.16289463E-05      1.0000000000
  Number of coefficients less than 10^-11 times norm is           91


 @ Excited state no:    3 in symmetry 1  ( A  ) - singlet excitation
 -------------------------------------------------------------------

@ Excitation energy :  0.47143066     au
@                       12.828281     eV;   103467.07     cm-1;   1237.7410     kJ / mol

@ Total energy :       -13.970026     au

@ Operator label: XDIPLEN ; Transition moment : -2.46632358E-15 au
@ Oscillator strength (LENGTH)   :  1.91173051E-30  (X-polarization)

@ Operator label: YDIPLEN ; Transition moment :  6.51210953E-15 au
@ Oscillator strength (LENGTH)   :  1.33281525E-29  (Y-polarization)

@ Operator label: ZDIPLEN ; Transition moment :  5.17443565E-15 au
@ Oscillator strength (LENGTH)   :  8.41496941E-30  (Z-polarization)
@ Total oscillator strength (LENGTH)   :  2.36548524E-29

 Eigenvector for state no.  3

      Index(conf)                         Z operator          Y operator
      ----------                      --------------      --------------
          20                            0.9986268743        0.0000000000

      104 elements with absolute value ≤ 1.00D-01 are not printed.

 Printout of coefficients in interval  3.1623E-01 to  1.0000E+00
 ===============================================================

  Coefficient of CSF no.        20 is      0.99862687    9.98626874E-01
  Orbital          1   3   5
  Spin coupling    2   1  -1

 Printout of coefficients in interval  1.0000E-01 to  3.1623E-01
 ===============================================================
   ( no coefficients )

 Norm of printed CI vector ..      0.99725563

 Magnitude of CI coefficients
 ============================
 ( Ranges are relative to norm of vector :  1.00E+00 )

  10- 1 to 10- 0         1    0.99725563E+00      0.9972556341
  10- 2 to 10- 1         1    0.26909347E-02      0.9999465687
  10- 3 to 10- 2         7    0.53034308E-04      0.9999996030
  10- 4 to 10- 3         7    0.38308609E-06      0.9999999861
  10- 5 to 10- 4         3    0.13823295E-07      0.9999999999
  10- 6 to 10- 5         1    0.54957639E-10      1.0000000000
  Number of coefficients less than 10^-11 times norm is           85


 @ Excited state no:    4 in symmetry 1  ( A  ) - singlet excitation
 -------------------------------------------------------------------

@ Excitation energy :  0.47143066     au
@                       12.828281     eV;   103467.07     cm-1;   1237.7410     kJ / mol

@ Total energy :       -13.970026     au

@ Operator label: XDIPLEN ; Transition moment : -1.17366738E-16 au
@ Oscillator strength (LENGTH)   :  4.32928953E-33  (X-polarization)

@ Operator label: YDIPLEN ; Transition moment : -1.32192465E-14 au
@ Oscillator strength (LENGTH)   :  5.49211930E-29  (Y-polarization)

@ Operator label: ZDIPLEN ; Transition moment :  9.84086468E-14 au
@ Oscillator strength (LENGTH)   :  3.04363858E-27  (Z-polarization)
@ Total oscillator strength (LENGTH)   :  3.09856411E-27

 Eigenvector for state no.  4

      Index(conf)                         Z operator          Y operator
      ----------                      --------------      --------------
          18                           -0.9997947538        0.0000000000

      104 elements with absolute value ≤ 1.00D-01 are not printed.

 Printout of coefficients in interval  3.1623E-01 to  1.0000E+00
 ===============================================================

  Coefficient of CSF no.        18 is     -0.99979475   -9.99794754E-01
  Orbital          1   3   4
  Spin coupling    2   1  -1

 Printout of coefficients in interval  1.0000E-01 to  3.1623E-01
 ===============================================================
   ( no coefficients )

 Norm of printed CI vector ..      0.99958955

 Magnitude of CI coefficients
 ============================
 ( Ranges are relative to norm of vector :  1.00E+00 )

  10- 1 to 10- 0         1    0.99958955E+00      0.9995895498
  10- 2 to 10- 1         1    0.35701892E-03      0.9999465687
  10- 3 to 10- 2         7    0.53158426E-04      0.9999997272
  10- 4 to 10- 3         2    0.25376911E-06      0.9999999809
  10- 5 to 10- 4         7    0.18986357E-07      0.9999999999
  10- 6 to 10- 5         2    0.90637577E-10      1.0000000000
  Number of coefficients less than 10^-11 times norm is           85


 @ Excited state no:    5 in symmetry 1  ( A  ) - singlet excitation
 -------------------------------------------------------------------

@ Excitation energy :  0.49106079     au
@                       13.362444     eV;   107775.39     cm-1;   1289.2799     kJ / mol

@ Total energy :       -13.950396     au

@ Operator label: XDIPLEN ; Transition moment :  4.23940485E-16 au
@ Oscillator strength (LENGTH)   :  5.88374423E-32  (X-polarization)

@ Operator label: YDIPLEN ; Transition moment : -0.30798083     au
@ Oscillator strength (LENGTH)   :  3.10521280E-02  (Y-polarization)

@ Operator label: ZDIPLEN ; Transition moment :  0.80002073     au
@ Oscillator strength (LENGTH)   :  0.20953013      (Z-polarization)
@ Total oscillator strength (LENGTH)   :  0.24058226    

 Eigenvector for state no.  5

      Index(conf)                         Z operator          Y operator
      ----------                      --------------      --------------
          17                            0.8709440988        0.0000000000
          19                            0.4396935647        0.0000000000
          24                           -0.1956529522        0.0000000000

      102 elements with absolute value ≤ 1.00D-01 are not printed.

 Printout of coefficients in interval  3.1623E-01 to  1.0000E+00
 ===============================================================

  Coefficient of CSF no.        17 is      0.87094410    8.70944099E-01
  Orbital          1   2   4
  Spin coupling    2   1  -1

  Coefficient of CSF no.        19 is      0.43969356    4.39693565E-01
  Orbital          1   2   5
  Spin coupling    2   1  -1

 Printout of coefficients in interval  1.0000E-01 to  3.1623E-01
 ===============================================================

  Coefficient of CSF no.        24 is     -0.19565295   -1.95652952E-01
  Orbital          1   4   6
  Spin coupling    2   1  -1

 Norm of printed CI vector ..      0.99015413

 Magnitude of CI coefficients
 ============================
 ( Ranges are relative to norm of vector :  1.00E+00 )

  10- 1 to 10- 0         3    0.99015413E+00      0.9901541317
  10- 2 to 10- 1         1    0.97564645E-02      0.9999105962
  10- 3 to 10- 2        15    0.88120106E-04      0.9999987163
  10- 4 to 10- 3         7    0.12831655E-05      0.9999999995
  10- 5 to 10- 4         2    0.54282432E-09      1.0000000000
  Number of coefficients less than 10^-11 times norm is           77


 @ Excited state no:    6 in symmetry 1  ( A  ) - singlet excitation
 -------------------------------------------------------------------

@ Excitation energy :  0.49106079     au
@                       13.362444     eV;   107775.39     cm-1;   1289.2799     kJ / mol

@ Total energy :       -13.950396     au

@ Operator label: XDIPLEN ; Transition moment :  9.65353023E-17 au
@ Oscillator strength (LENGTH)   :  3.05081816E-33  (X-polarization)

@ Operator label: YDIPLEN ; Transition moment : -0.80155316     au
@ Oscillator strength (LENGTH)   :  0.21033361      (Y-polarization)

@ Operator label: ZDIPLEN ; Transition moment : -0.30397021     au
@ Oscillator strength (LENGTH)   :  3.02486536E-02  (Z-polarization)
@ Total oscillator strength (LENGTH)   :  0.24058226    

 Eigenvector for state no.  6

      Index(conf)                         Z operator          Y operator
      ----------                      --------------      --------------
          17                           -0.4353260878        0.0000000000
          19                            0.8731352995        0.0000000000
          25                           -0.1961451938        0.0000000000

      102 elements with absolute value ≤ 1.00D-01 are not printed.

 Printout of coefficients in interval  3.1623E-01 to  1.0000E+00
 ===============================================================

  Coefficient of CSF no.        17 is     -0.43532609   -4.35326088E-01
  Orbital          1   2   4
  Spin coupling    2   1  -1

  Coefficient of CSF no.        19 is      0.87313530    8.73135300E-01
  Orbital          1   2   5
  Spin coupling    2   1  -1

 Printout of coefficients in interval  1.0000E-01 to  3.1623E-01
 ===============================================================

  Coefficient of CSF no.        25 is     -0.19614519   -1.96145194E-01
  Orbital          1   5   6
  Spin coupling    2   1  -1

 Norm of printed CI vector ..      0.99034699

 Magnitude of CI coefficients
 ============================
 ( Ranges are relative to norm of vector :  1.00E+00 )

  10- 1 to 10- 0         3    0.99034699E+00      0.9903469910
  10- 2 to 10- 1         1    0.95636051E-02      0.9999105962
  10- 3 to 10- 2        15    0.88129399E-04      0.9999987256
  10- 4 to 10- 3         7    0.12738724E-05      0.9999999995
  10- 5 to 10- 4         2    0.54282432E-09      1.0000000000
  Number of coefficients less than 10^-11 times norm is           77


 @ Excited state no:    7 in symmetry 1  ( A  ) - singlet excitation
 -------------------------------------------------------------------

@ Excitation energy :  0.74558038     au
@                       20.288274     eV;   163635.98     cm-1;   1957.5210     kJ / mol

@ Total energy :       -13.695876     au

@ Operator label: XDIPLEN ; Transition moment :  2.15197656E-14 au
@ Oscillator strength (LENGTH)   :  2.30185671E-28  (X-polarization)

@ Operator label: YDIPLEN ; Transition moment :  1.05095248E-15 au
@ Oscillator strength (LENGTH)   :  5.48996236E-31  (Y-polarization)

@ Operator label: ZDIPLEN ; Transition moment : -4.19152958E-16 au
@ Oscillator strength (LENGTH)   :  8.73269480E-32  (Z-polarization)
@ Total oscillator strength (LENGTH)   :  2.30821994E-28

 Eigenvector for state no.  7

      Index(conf)                         Z operator          Y operator
      ----------                      --------------      --------------
           2                           -0.2283770414        0.0000000000
           4                           -0.3275023271        0.0000000000
           7                           -0.3275023271        0.0000000000
          11                            0.1472487452        0.0000000000
          22                            0.8377933498        0.0000000000

      100 elements with absolute value ≤ 1.00D-01 are not printed.

 Printout of coefficients in interval  3.1623E-01 to  1.0000E+00
 ===============================================================

  Coefficient of CSF no.         4 is     -0.32750233   -3.27502327E-01
  Orbital          1   4
  Spin coupling    2   2

  Coefficient of CSF no.         7 is     -0.32750233   -3.27502327E-01
  Orbital          1   5
  Spin coupling    2   2

  Coefficient of CSF no.        22 is      0.83779335    8.37793350E-01
  Orbital          1   2   6
  Spin coupling    2   1  -1

 Printout of coefficients in interval  1.0000E-01 to  3.1623E-01
 ===============================================================

  Coefficient of CSF no.         2 is     -0.22837704   -2.28377041E-01
  Orbital          1   3
  Spin coupling    2   2

  Coefficient of CSF no.        11 is      0.14724875    1.47248745E-01
  Orbital          1   6
  Spin coupling    2   2

 Norm of printed CI vector ..      0.99025151

 Magnitude of CI coefficients
 ============================
 ( Ranges are relative to norm of vector :  1.00E+00 )

  10- 1 to 10- 0         5    0.99025151E+00      0.9902515115
  10- 2 to 10- 1         1    0.96940011E-02      0.9999455125
  10- 3 to 10- 2         8    0.49571310E-04      0.9999950839
  10- 4 to 10- 3        13    0.49161439E-05      1.0000000000
  Number of coefficients less than 10^-11 times norm is           78


 @ Excited state no:    8 in symmetry 1  ( A  ) - singlet excitation
 -------------------------------------------------------------------

@ Excitation energy :  0.80928841     au
@                       22.021858     eV;   177618.27     cm-1;   2124.7864     kJ / mol

@ Total energy :       -13.632168     au

@ Operator label: XDIPLEN ; Transition moment : -0.77303608     au
@ Oscillator strength (LENGTH)   :  0.32241229      (X-polarization)

@ Operator label: YDIPLEN ; Transition moment :  3.16969757E-15 au
@ Oscillator strength (LENGTH)   :  5.42060442E-30  (Y-polarization)

@ Operator label: ZDIPLEN ; Transition moment :  2.98264491E-16 au
@ Oscillator strength (LENGTH)   :  4.79971186E-32  (Z-polarization)
@ Total oscillator strength (LENGTH)   :  0.32241229    

 Eigenvector for state no.  8

      Index(conf)                         Z operator          Y operator
      ----------                      --------------      --------------
          16                           -0.2403766128        0.0000000000
          23                            0.9706359965        0.0000000000

      103 elements with absolute value ≤ 1.00D-01 are not printed.

 Printout of coefficients in interval  3.1623E-01 to  1.0000E+00
 ===============================================================

  Coefficient of CSF no.        23 is      0.97063600    9.70635996E-01
  Orbital          1   3   6
  Spin coupling    2   1  -1

 Printout of coefficients in interval  1.0000E-01 to  3.1623E-01
 ===============================================================

  Coefficient of CSF no.        16 is     -0.24037661   -2.40376613E-01
  Orbital          1   2   3
  Spin coupling    2   1  -1

 Norm of printed CI vector ..      0.99991515

 Magnitude of CI coefficients
 ============================
 ( Ranges are relative to norm of vector :  1.00E+00 )

  10- 1 to 10- 0         2    0.99991515E+00      0.9999151536
  10- 3 to 10- 2         9    0.83968015E-04      0.9999991217
  10- 4 to 10- 3         3    0.87834739E-06      1.0000000000
  Number of coefficients less than 10^-11 times norm is           91


 @ Excited state no:    9 in symmetry 1  ( A  ) - singlet excitation
 -------------------------------------------------------------------

@ Excitation energy :  0.86607051     au
@                       23.566978     eV;   190080.51     cm-1;   2273.8678     kJ / mol

@ Total energy :       -13.575386     au

@ Operator label: XDIPLEN ; Transition moment :  4.38134200E-15 au
@ Oscillator strength (LENGTH)   :  1.10834841E-29  (X-polarization)

@ Operator label: YDIPLEN ; Transition moment : -1.50370027E-15 au
@ Oscillator strength (LENGTH)   :  1.30552307E-30  (Y-polarization)

@ Operator label: ZDIPLEN ; Transition moment : -1.75512600E-15 au
@ Oscillator strength (LENGTH)   :  1.77860126E-30  (Z-polarization)
@ Total oscillator strength (LENGTH)   :  1.41676085E-29

 Eigenvector for state no.  9

      Index(conf)                         Z operator          Y operator
      ----------                      --------------      --------------
           4                           -0.1573840023        0.0000000000
           7                            0.1573840023        0.0000000000
          21                           -0.9748893536        0.0000000000

      102 elements with absolute value ≤ 1.00D-01 are not printed.

 Printout of coefficients in interval  3.1623E-01 to  1.0000E+00
 ===============================================================

  Coefficient of CSF no.        21 is     -0.97488935   -9.74889354E-01
  Orbital          1   4   5
  Spin coupling    2   1  -1

 Printout of coefficients in interval  1.0000E-01 to  3.1623E-01
 ===============================================================

  Coefficient of CSF no.         4 is     -0.15738400   -1.57384002E-01
  Orbital          1   4
  Spin coupling    2   2

  Coefficient of CSF no.         7 is      0.15738400    1.57384002E-01
  Orbital          1   5
  Spin coupling    2   2

 Norm of printed CI vector ..      0.99994870

 Magnitude of CI coefficients
 ============================
 ( Ranges are relative to norm of vector :  1.00E+00 )

  10- 1 to 10- 0         3    0.99994870E+00      0.9999487002
  10- 3 to 10- 2         7    0.48414469E-04      0.9999971146
  10- 4 to 10- 3        11    0.28674375E-05      0.9999999821
  10- 5 to 10- 4         2    0.17923765E-07      1.0000000000
  Number of coefficients less than 10^-11 times norm is           82


 @ Excited state no:   10 in symmetry 1  ( A  ) - singlet excitation
 -------------------------------------------------------------------

@ Excitation energy :  0.86607051     au
@                       23.566978     eV;   190080.51     cm-1;   2273.8678     kJ / mol

@ Total energy :       -13.575386     au

@ Operator label: XDIPLEN ; Transition moment :  7.33925897E-15 au
@ Oscillator strength (LENGTH)   :  3.11004318E-29  (X-polarization)

@ Operator label: YDIPLEN ; Transition moment :  2.24324416E-15 au
@ Oscillator strength (LENGTH)   :  2.90546123E-30  (Y-polarization)

@ Operator label: ZDIPLEN ; Transition moment :  3.62292436E-15 au
@ Oscillator strength (LENGTH)   :  7.57845242E-30  (Z-polarization)
@ Total oscillator strength (LENGTH)   :  4.15843455E-29

 Eigenvector for state no. 10

      Index(conf)                         Z operator          Y operator
      ----------                      --------------      --------------
           4                           -0.7002872600        0.0000000000
           7                            0.7002872600        0.0000000000
          21                            0.1383625929        0.0000000000

      102 elements with absolute value ≤ 1.00D-01 are not printed.

 Printout of coefficients in interval  3.1623E-01 to  1.0000E+00
 ===============================================================

  Coefficient of CSF no.         4 is     -0.70028726   -7.00287260E-01
  Orbital          1   4
  Spin coupling    2   2

  Coefficient of CSF no.         7 is      0.70028726    7.00287260E-01
  Orbital          1   5
  Spin coupling    2   2

 Printout of coefficients in interval  1.0000E-01 to  3.1623E-01
 ===============================================================

  Coefficient of CSF no.        21 is      0.13836259    1.38362593E-01
  Orbital          1   4   5
  Spin coupling    2   1  -1

 Printout of coefficients in interval  1.0000E-01 to  1.0000E-01
 ===============================================================
   ( no coefficients )

[...]
  Orbital          3   4   6
  Spin coupling    2   1  -1

  Coefficient of CSF no.        45 is      0.19202235    1.92022354E-01
  Orbital          3   5   6
  Spin coupling    2   1  -1

 Norm of printed CI vector ..      0.98554719

 Magnitude of CI coefficients
 ============================
 ( Ranges are relative to norm of vector :  1.00E+00 )

  10- 1 to 10- 0         6    0.98554719E+00      0.9855471853
  10- 2 to 10- 1        10    0.14161675E-01      0.9997088607
  10- 3 to 10- 2         6    0.28851457E-03      0.9999973753
  10- 4 to 10- 3         6    0.26247290E-05      1.0000000000
  Number of coefficients less than 10^-11 times norm is           77


 @ Excited state no:   99 in symmetry 1  ( A  ) - singlet excitation
 -------------------------------------------------------------------

@ Excitation energy :   11.637514     au
@                       316.67286     eV;   2554139.1     cm-1;   30554.288     kJ / mol

@ Total energy :       -2.8039428     au

@ Operator label: XDIPLEN ; Transition moment : -2.23229499E-17 au
@ Oscillator strength (LENGTH)   :  3.86609147E-33  (X-polarization)

@ Operator label: YDIPLEN ; Transition moment :  1.75268062E-04 au
@ Oscillator strength (LENGTH)   :  2.38327701E-07  (Y-polarization)

@ Operator label: ZDIPLEN ; Transition moment :  1.99591383E-04 au
@ Oscillator strength (LENGTH)   :  3.09066925E-07  (Z-polarization)
@ Total oscillator strength (LENGTH)   :  5.47394626E-07

 Eigenvector for state no. 99

      Index(conf)                         Z operator          Y operator
      ----------                      --------------      --------------
          34                           -0.3188694335        0.0000000000
          35                            0.2279153901        0.0000000000
          44                           -0.1952282512        0.0000000000
          45                            0.1395415125        0.0000000000
          70                           -0.7158959345        0.0000000000
          73                            0.5116943930        0.0000000000

       99 elements with absolute value ≤ 1.00D-01 are not printed.

 Printout of coefficients in interval  3.1623E-01 to  1.0000E+00
 ===============================================================

  Coefficient of CSF no.        34 is     -0.31886943   -3.18869433E-01
  Orbital          2   4   6
  Spin coupling    2   1  -1

  Coefficient of CSF no.        70 is     -0.71589593   -7.15895935E-01
  Orbital          6   2   4
  Spin coupling    2   1  -1

  Coefficient of CSF no.        73 is      0.51169439    5.11694393E-01
  Orbital          6   2   5
  Spin coupling    2   1  -1

 Printout of coefficients in interval  1.0000E-01 to  3.1623E-01
 ===============================================================

  Coefficient of CSF no.        35 is      0.22791539    2.27915390E-01
  Orbital          2   5   6
  Spin coupling    2   1  -1

  Coefficient of CSF no.        44 is     -0.19522825   -1.95228251E-01
  Orbital          3   4   6
  Spin coupling    2   1  -1

  Coefficient of CSF no.        45 is      0.13954151    1.39541512E-01
  Orbital          3   5   6
  Spin coupling    2   1  -1

 Norm of printed CI vector ..      0.98554719

 Magnitude of CI coefficients
 ============================
 ( Ranges are relative to norm of vector :  1.00E+00 )

  10- 1 to 10- 0         6    0.98554719E+00      0.9855471853
  10- 2 to 10- 1        11    0.14262807E-01      0.9998099920
  10- 3 to 10- 2         5    0.18738332E-03      0.9999973753
  10- 4 to 10- 3         6    0.26247290E-05      1.0000000000
  Number of coefficients less than 10^-11 times norm is           77


 @ Excited state no:  100 in symmetry 1  ( A  ) - singlet excitation
 -------------------------------------------------------------------

@ Excitation energy :   11.649966     au
@                       317.01169     eV;   2556871.9     cm-1;   30586.980     kJ / mol

@ Total energy :       -2.7914912     au

@ Operator label: XDIPLEN ; Transition moment : -3.98283236E-17 au
@ Oscillator strength (LENGTH)   :  1.23201909E-32  (X-polarization)

@ Operator label: YDIPLEN ; Transition moment : -4.76465171E-16 au
@ Oscillator strength (LENGTH)   :  1.76317615E-30  (Y-polarization)

@ Operator label: ZDIPLEN ; Transition moment :  3.73678001E-16 au
@ Oscillator strength (LENGTH)   :  1.08449722E-30  (Z-polarization)
@ Total oscillator strength (LENGTH)   :  2.85999356E-30

 Eigenvector for state no.100

      Index(conf)                         Z operator          Y operator
      ----------                      --------------      --------------
          71                           -0.7226764695        0.0000000000
          74                           -0.4886392528        0.0000000000
          92                            0.1301629596        0.0000000000
          93                           -0.3772284609        0.0000000000
          99                           -0.2550638371        0.0000000000

      100 elements with absolute value ≤ 1.00D-01 are not printed.

 Printout of coefficients in interval  3.1623E-01 to  1.0000E+00
 ===============================================================

  Coefficient of CSF no.        71 is     -0.72267647   -7.22676469E-01
  Orbital          6   3   4
  Spin coupling    2   1  -1

  Coefficient of CSF no.        74 is     -0.48863925   -4.88639253E-01
  Orbital          6   3   5
  Spin coupling    2   1  -1

  Coefficient of CSF no.        93 is     -0.37722846   -3.77228461E-01
  Orbital          2   3   4   6
  Spin coupling    1  -1   1  -1

 Printout of coefficients in interval  1.0000E-01 to  3.1623E-01
 ===============================================================

  Coefficient of CSF no.        92 is      0.13016296    1.30162960E-01
  Orbital          2   3   4   6
  Spin coupling    1   1  -1  -1

  Coefficient of CSF no.        99 is     -0.25506384   -2.55063837E-01
  Orbital          2   3   5   6
  Spin coupling    1  -1   1  -1

 Norm of printed CI vector ..      0.98533087

 Magnitude of CI coefficients
 ============================
 ( Ranges are relative to norm of vector :  1.00E+00 )

  10- 1 to 10- 0         5    0.98533087E+00      0.9853308677
  10- 2 to 10- 1         7    0.14504700E-01      0.9998355675
  10- 3 to 10- 2         5    0.16294982E-03      0.9999985173
  10- 4 to 10- 3         3    0.14826694E-05      1.0000000000
  Number of coefficients less than 10^-11 times norm is           85


 @ Excited state no:  101 in symmetry 1  ( A  ) - singlet excitation
 -------------------------------------------------------------------

@ Excitation energy :   11.649966     au
@                       317.01169     eV;   2556871.9     cm-1;   30586.980     kJ / mol

@ Total energy :       -2.7914912     au

@ Operator label: XDIPLEN ; Transition moment : -2.22836912E-18 au
@ Oscillator strength (LENGTH)   :  3.85662706E-35  (X-polarization)

@ Operator label: YDIPLEN ; Transition moment :  7.30298640E-17 au
@ Oscillator strength (LENGTH)   :  4.14223150E-32  (Y-polarization)

@ Operator label: ZDIPLEN ; Transition moment :  5.49919780E-17 au
@ Oscillator strength (LENGTH)   :  2.34872443E-32  (Z-polarization)
@ Total oscillator strength (LENGTH)   :  6.49481256E-32

 Eigenvector for state no.101

      Index(conf)                         Z operator          Y operator
      ----------                      --------------      --------------
          71                            0.7212593327        0.0000000000
          74                           -0.4907286154        0.0000000000
          92                           -0.1299077157        0.0000000000
          93                            0.3764887325        0.0000000000
          99                           -0.2561544593        0.0000000000

      100 elements with absolute value ≤ 1.00D-01 are not printed.

 Printout of coefficients in interval  3.1623E-01 to  1.0000E+00
 ===============================================================

  Coefficient of CSF no.        71 is      0.72125933    7.21259333E-01
  Orbital          6   3   4
  Spin coupling    2   1  -1

  Coefficient of CSF no.        74 is     -0.49072862   -4.90728615E-01
  Orbital          6   3   5
  Spin coupling    2   1  -1

  Coefficient of CSF no.        93 is      0.37648873    3.76488732E-01
  Orbital          2   3   4   6
  Spin coupling    1  -1   1  -1

 Printout of coefficients in interval  1.0000E-01 to  3.1623E-01
 ===============================================================

  Coefficient of CSF no.        92 is     -0.12990772   -1.29907716E-01
  Orbital          2   3   4   6
  Spin coupling    1   1  -1  -1

  Coefficient of CSF no.        99 is     -0.25615446   -2.56154459E-01
  Orbital          2   3   5   6
  Spin coupling    1  -1   1  -1

 Norm of printed CI vector ..      0.98526449

 Magnitude of CI coefficients
 ============================
 ( Ranges are relative to norm of vector :  1.00E+00 )

  10- 1 to 10- 0         5    0.98526449E+00      0.9852644863
  10- 2 to 10- 1         7    0.14571081E-01      0.9998355675
  10- 3 to 10- 2         5    0.16294360E-03      0.9999985111
  10- 4 to 10- 3         3    0.14888883E-05      1.0000000000
  Number of coefficients less than 10^-11 times norm is           85


 @ Excited state no:  102 in symmetry 1  ( A  ) - singlet excitation
 -------------------------------------------------------------------

@ Excitation energy :   11.722116     au
@                       318.97502     eV;   2572707.2     cm-1;   30776.412     kJ / mol

@ Total energy :       -2.7193403     au

@ Operator label: XDIPLEN ; Transition moment : -1.39813940E-16 au
@ Oscillator strength (LENGTH)   :  1.52762135E-31  (X-polarization)

@ Operator label: YDIPLEN ; Transition moment : -8.63508635E-17 au
@ Oscillator strength (LENGTH)   :  5.82704193E-32  (Y-polarization)

@ Operator label: ZDIPLEN ; Transition moment :  1.89918788E-17 au
@ Oscillator strength (LENGTH)   :  2.81871154E-33  (Z-polarization)
@ Total oscillator strength (LENGTH)   :  2.13851266E-31

 Eigenvector for state no.102

      Index(conf)                         Z operator          Y operator
      ----------                      --------------      --------------
          14                            0.5662748372        0.0000000000
          15                           -0.5662748372        0.0000000000
          53                           -0.2436951758        0.0000000000
          63                            0.2436951758        0.0000000000
          75                           -0.4125874270        0.0000000000
         102                            0.1537681145        0.0000000000

       99 elements with absolute value ≤ 1.00D-01 are not printed.

 Printout of coefficients in interval  3.1623E-01 to  1.0000E+00
 ===============================================================

  Coefficient of CSF no.        14 is      0.56627484    5.66274837E-01
  Orbital          4   6
  Spin coupling    2   2

  Coefficient of CSF no.        15 is     -0.56627484   -5.66274837E-01
  Orbital          5   6
  Spin coupling    2   2

  Coefficient of CSF no.        75 is     -0.41258743   -4.12587427E-01
  Orbital          6   4   5
  Spin coupling    2   1  -1

 Printout of coefficients in interval  1.0000E-01 to  3.1623E-01
 ===============================================================

  Coefficient of CSF no.        53 is     -0.24369518   -2.43695176E-01
  Orbital          4   2   6
  Spin coupling    2   1  -1

  Coefficient of CSF no.        63 is      0.24369518    2.43695176E-01
  Orbital          5   2   6
  Spin coupling    2   1  -1

  Coefficient of CSF no.       102 is      0.15376811    1.53768114E-01
  Orbital          2   4   5   6
  Spin coupling    1   1  -1  -1

 Norm of printed CI vector ..      0.95398208

 Magnitude of CI coefficients
 ============================
 ( Ranges are relative to norm of vector :  1.00E+00 )

  10- 1 to 10- 0         6    0.95398208E+00      0.9539820778
  10- 2 to 10- 1         9    0.45910187E-01      0.9998922650
  10- 3 to 10- 2         5    0.10656611E-03      0.9999988311
  10- 4 to 10- 3         3    0.11689048E-05      1.0000000000
  Number of coefficients less than 10^-11 times norm is           82


 @ Excited state no:  103 in symmetry 1  ( A  ) - singlet excitation
 -------------------------------------------------------------------

@ Excitation energy :   11.722116     au
@                       318.97502     eV;   2572707.2     cm-1;   30776.412     kJ / mol

@ Total energy :       -2.7193403     au

@ Operator label: XDIPLEN ; Transition moment : -4.46675892E-20 au
@ Oscillator strength (LENGTH)   :  1.55919272E-38  (X-polarization)

@ Operator label: YDIPLEN ; Transition moment : -5.20232549E-17 au
@ Oscillator strength (LENGTH)   :  2.11499729E-32  (Y-polarization)

@ Operator label: ZDIPLEN ; Transition moment : -3.31065358E-18 au
@ Oscillator strength (LENGTH)   :  8.56529354E-35  (Z-polarization)
@ Total oscillator strength (LENGTH)   :  2.12356414E-32

 Eigenvector for state no.103

      Index(conf)                         Z operator          Y operator
      ----------                      --------------      --------------
          14                           -0.2711223770        0.0000000000
          15                            0.2711223770        0.0000000000
          31                           -0.1244073628        0.0000000000
          41                           -0.1240000791        0.0000000000
          53                            0.1166769402        0.0000000000
          63                           -0.1166769402        0.0000000000
          75                           -0.8151981850        0.0000000000
         102                            0.3038180023        0.0000000000
         103                           -0.1754094054        0.0000000000

       96 elements with absolute value ≤ 1.00D-01 are not printed.

 Printout of coefficients in interval  3.1623E-01 to  1.0000E+00
 ===============================================================

  Coefficient of CSF no.        75 is     -0.81519818   -8.15198185E-01
  Orbital          6   4   5
  Spin coupling    2   1  -1

 Printout of coefficients in interval  1.0000E-01 to  3.1623E-01
 ===============================================================

  Coefficient of CSF no.        14 is     -0.27112238   -2.71122377E-01
  Orbital          4   6
  Spin coupling    2   2

  Coefficient of CSF no.        15 is      0.27112238    2.71122377E-01
  Orbital          5   6
  Spin coupling    2   2

  Coefficient of CSF no.        31 is     -0.12440736   -1.24407363E-01
  Orbital          2   4   5
  Spin coupling    2   1  -1

  Coefficient of CSF no.        41 is     -0.12400008   -1.24000079E-01
  Orbital          3   4   5
  Spin coupling    2   1  -1

  Coefficient of CSF no.        53 is      0.11667694    1.16676940E-01
  Orbital          4   2   6
  Spin coupling    2   1  -1

  Coefficient of CSF no.        63 is     -0.11667694   -1.16676940E-01
  Orbital          5   2   6
  Spin coupling    2   1  -1

  Coefficient of CSF no.       102 is      0.30381800    3.03818002E-01
  Orbital          2   4   5   6
  Spin coupling    1   1  -1  -1

  Coefficient of CSF no.       103 is     -0.17540941   -1.75409405E-01
  Orbital          2   4   5   6
  Spin coupling    1  -1   1  -1

 Norm of printed CI vector ..      0.99271683

 Magnitude of CI coefficients
 ============================
 ( Ranges are relative to norm of vector :  1.00E+00 )

  10- 1 to 10- 0         9    0.99271683E+00      0.9927168337
  10- 2 to 10- 1         5    0.70974488E-02      0.9998142825
  10- 3 to 10- 2         6    0.18454859E-03      0.9999988311
  10- 4 to 10- 3         3    0.11689048E-05      1.0000000000
  Number of coefficients less than 10^-11 times norm is           82


 @ Excited state no:  104 in symmetry 1  ( A  ) - singlet excitation
 -------------------------------------------------------------------

@ Excitation energy :   11.818080     au
@                       321.58631     eV;   2593768.7     cm-1;   31028.364     kJ / mol

@ Total energy :       -2.6233769     au

@ Operator label: XDIPLEN ; Transition moment :  9.22589484E-17 au
@ Oscillator strength (LENGTH)   :  6.70614070E-32  (X-polarization)

@ Operator label: YDIPLEN ; Transition moment : -2.51246611E-17 au
@ Oscillator strength (LENGTH)   :  4.97343089E-33  (Y-polarization)

@ Operator label: ZDIPLEN ; Transition moment :  6.96676503E-17 au
@ Oscillator strength (LENGTH)   :  3.82400092E-32  (Z-polarization)
@ Total oscillator strength (LENGTH)   :  1.10274847E-31

 Eigenvector for state no.104

      Index(conf)                         Z operator          Y operator
      ----------                      --------------      --------------
           5                            0.1031626967        0.0000000000
           8                            0.1031626967        0.0000000000
          12                            0.2974030496        0.0000000000
          13                            0.2586132788        0.0000000000
          14                            0.5733382614        0.0000000000
          15                            0.5733382614        0.0000000000
          53                           -0.2634125304        0.0000000000
          63                           -0.2634125304        0.0000000000

       97 elements with absolute value ≤ 1.00D-01 are not printed.

 Printout of coefficients in interval  3.1623E-01 to  1.0000E+00
 ===============================================================

  Coefficient of CSF no.        14 is      0.57333826    5.73338261E-01
  Orbital          4   6
  Spin coupling    2   2

  Coefficient of CSF no.        15 is      0.57333826    5.73338261E-01
  Orbital          5   6
  Spin coupling    2   2

 Printout of coefficients in interval  1.0000E-01 to  3.1623E-01
 ===============================================================

  Coefficient of CSF no.         5 is      0.10316270    1.03162697E-01
  Orbital          2   4
  Spin coupling    2   2

  Coefficient of CSF no.         8 is      0.10316270    1.03162697E-01
  Orbital          2   5
  Spin coupling    2   2

  Coefficient of CSF no.        12 is      0.29740305    2.97403050E-01
  Orbital          2   6
  Spin coupling    2   2

  Coefficient of CSF no.        13 is      0.25861328    2.58613279E-01
  Orbital          3   6
  Spin coupling    2   2

  Coefficient of CSF no.        53 is     -0.26341253   -2.63412530E-01
  Orbital          4   2   6
  Spin coupling    2   1  -1

  Coefficient of CSF no.        63 is     -0.26341253   -2.63412530E-01
  Orbital          5   2   6
  Spin coupling    2   1  -1

 Norm of printed CI vector ..      0.97282033

 Magnitude of CI coefficients
 ============================
 ( Ranges are relative to norm of vector :  1.00E+00 )

  10- 1 to 10- 0         8    0.97282033E+00      0.9728203321
  10- 2 to 10- 1         9    0.27062415E-01      0.9998827472
  10- 3 to 10- 2         6    0.11449525E-03      0.9999972425
  10- 4 to 10- 3         4    0.27575242E-05      1.0000000000
  Number of coefficients less than 10^-11 times norm is           78


 Time used in polarization propagator calculation is      0.11 CPU seconds for symmetry 1

  Total CPU  time used in RESPONSE:   0.13 seconds
  Total wall time used in RESPONSE:   0.34 seconds


                   .-------------------------------------------.
                   | End of Dynamic Property Section (RESPONS) |
                   `-------------------------------------------'

  Total CPU  time used in DALTON:   0.24 seconds
  Total wall time used in DALTON:   0.88 seconds

 NOTE:    1 warnings have been issued.
 Check output, result, and error files for "WARNING".

 
     Date and time (Linux)  : Tue Jul  7 10:39:31 2026
     Host name              : n-62-31-4                               
