

     ************************************************************************
     *************** Dalton - An Electronic Structure Program ***************
     ************************************************************************

    This is output from DALTON release Dalton2024.0-dev (2024)
         ( Web site: http://daltonprogram.org )

   ----------------------------------------------------------------------------

    NOTE:
     
    Dalton is an experimental code for the evaluation of molecular
    properties using (MC)SCF, DFT, CI, and CC wave functions.
    The authors accept no responsibility for the performance of
    the code or for the correctness of the results.
     
    The code (in whole or part) is provided under a licence and
    is not to be reproduced for further distribution without
    the written permission of the authors or their representatives.
     
    See the home page "http://daltonprogram.org" for further information.
     
    If results obtained with this code are published,
    the appropriate citations would be both of:
     
       K. Aidas, C. Angeli, K. L. Bak, V. Bakken,
       R. Bast, L. Boman, O. Christiansen, R. Cimiraglia,
       S. Coriani, P. Dahle, E. K. Dalskov, U. Ekstroem,
       T. Enevoldsen, J. J. Eriksen, P. Ettenhuber, B. Fernandez,
       L. Ferrighi, H. Fliegl, L. Frediani, K. Hald, A. Halkier,
       C. Haettig, H. Heiberg, T. Helgaker, A. C. Hennum,
       H. Hettema, E. Hjertenaes, S. Hoest, I.-M. Hoeyvik,
       M. F. Iozzi, B. Jansik, H. J. Aa. Jensen, D. Jonsson,
       P. Joergensen, J. Kauczor, S. Kirpekar,
       T. Kjaergaard, W. Klopper, S. Knecht, R. Kobayashi, H. Koch,
       J. Kongsted, A. Krapp, K. Kristensen, A. Ligabue,
       O. B. Lutnaes, J. I. Melo, K. V. Mikkelsen, R. H. Myhre,
       C. Neiss, C. B. Nielsen, P. Norman, J. Olsen,
       J. M. H. Olsen, A. Osted, M. J. Packer, F. Pawlowski,
       T. B. Pedersen, P. F. Provasi, S. Reine, Z. Rinkevicius,
       T. A. Ruden, K. Ruud, V. Rybkin, P. Salek, C. C. M. Samson,
       A. Sanchez de Meras, T. Saue, S. P. A. Sauer,
       B. Schimmelpfennig, K. Sneskov, A. H. Steindal,
       K. O. Sylvester-Hvid, P. R. Taylor, A. M. Teale,
       E. I. Tellgren, D. P. Tew, A. J. Thorvaldsen, L. Thoegersen,
       O. Vahtras, M. A. Watson, D. J. D. Wilson, M. Ziolkowski
       and H. Agren,
       "The Dalton quantum chemistry program system",
       WIREs Comput. Mol. Sci. 2014, 4:269-284 (doi: 10.1002/wcms.1172)
     
    and
     
       Dalton, a molecular electronic structure program,
       Release Dalton2024.0-dev (2024), see http://daltonprogram.org
   ----------------------------------------------------------------------------

    Authors in alphabetical order (Major contribution(s) in parenthesis):

  Kestutis Aidas,              Vilnius University,        Lithuania   (QM/MM)
  Celestino Angeli,            University of Ferrara,     Italy       (NEVPT2)
  Juan J. Aucar,               Northeast National UniversiArgentina   (LRESC, Relativistic Effects on EFG)
  Keld L. Bak,                 UNI-C,                     Denmark     (AOSOPPA, non-adiabatic coupling, magnetic properties)
  Vebjoern Bakken,             University of Oslo,        Norway      (DALTON; geometry optimizer, symmetry detection)
  Radovan Bast,                UiT The Arctic U. of NorwayNorway      (DALTON installation and execution frameworks)
  Pablo Baudin,                University of Valencia,    Spain       (Cholesky excitation energies)
  Linus Boman,                 NTNU,                      Norway      (Cholesky decomposition and subsystems)
  Bruno N. Cabral Tenorio,     Technical Univ. of Denmark,Denmark     (Lanczos-based CC methods)
  Ove Christiansen,            Aarhus University,         Denmark     (CC module)
  Renzo Cimiraglia,            University of Ferrara,     Italy       (NEVPT2)
  Sonia Coriani,               Technical Univ. of Denmark,Denmark     (CC and RESPONS modules)
  Janusz Cukras,               University of Warsaw,      Poland      (MChD in RESPONS)
  Paal Dahle,                  University of Oslo,        Norway      (Parallelization)
  Erik K. Dalskov,             UNI-C,                     Denmark     (SOPPA)
  Thomas Enevoldsen,           Univ. of Southern Denmark, Denmark     (SOPPA)
  Janus J. Eriksen,            Aarhus University,         Denmark     (Polarizable embedding, TDA)
  Rasmus Faber,                Technical Univ. of Denmark,Denmark     (Vib.avg. NMR w. SOPPA, parallel AO-SOPPA, CVS-CC and EOMCC)
  Tobias Fahleson,             KTH Stockholm,             Sweden      (Damped cubic response)
  Berta Fernandez,             U. of Santiago de CompostelSpain       (Doublet spin, ESR in RESPONS)
  Lara Ferrighi,               Aarhus University,         Denmark     (PCM Cubic response)
  Heike Fliegl,                University of Oslo,        Norway      (CCSD(R12))
  Luca Frediani,               UiT The Arctic U. of NorwayNorway      (PCM)
  Emmanuel Fromager,           Univ. Strasbourg,          France      (MC-srDFT)
  Bin Gao,                     UiT The Arctic U. of NorwayNorway      (Gen1Int library)
  Andre S. P. Gomes,           CNRS/Universite de Lille,  France      (Frozen density embedding)
  Christof Haettig,            Ruhr-University Bochum,    Germany     (CC module)
  Kasper Hald,                 Aarhus University,         Denmark     (CC module)
  Asger Halkier,               Aarhus University,         Denmark     (CC module)
  Frederik Beyer Hansen,       University of Copenhagen,  Denmark     (Parallel AO-SOPPA)
  Erik D. Hedegaard,           Univ. of Southern Denmark, Denmark     (Polarizable embedding, QM/MM, and MC-srDFT)
  Hanne Heiberg,               University of Oslo,        Norway      (Geometry analysis, selected one-electron integrals)
  Trygve Helgaker,             University of Oslo,        Norway      (DALTON; ABACUS, ERI, DFT modules, London, and much more)
  Alf Christian Hennum,        University of Oslo,        Norway      (Parity violation)
  Hinne Hettema,               University of Auckland,    New Zealand (Quadratic response in RESPONS; SIRIUS supersymmetry)
  Andreas E. Hillers-Bendtsen, University of Copenhagen,  Denmark     (MP3)
  Eirik Hjertenaes,            NTNU,                      Norway      (Cholesky decomposition)
  Nicolai Machholdt Hoeyer,    Aarhus University,         Denmark     (MP3)
  Pi A. B. Haase,              University of Copenhagen,  Denmark     (Triplet AO-SOPPA)
  Maria Francesca Iozzi,       University of Oslo,        Norway      (RPA)
  Christoph Jacob,             TU Braunschweig            Germany     (Frozen density embedding)
  Brano Jansik,                Technical Univ. of Ostrava Czech Rep.  (DFT cubic response)
  Hans Joergen Aa. Jensen,     Univ. of Southern Denmark, Denmark     (DALTON; SIRIUS, RESPONS, ABACUS, MC-srDFT, and much more)
  Dan Jonsson,                 UiT The Arctic U. of NorwayNorway      (Cubic response in RESPONS module)
  Poul Joergensen,             Aarhus University,         Denmark     (RESPONS, ABACUS, and CC modules)
  Maciej Kaminski,             University of Warsaw,      Poland      (CPPh in RESPONS)
  Joanna Kauczor,              Linkoeping University,     Sweden      (Complex polarization propagator (CPP) module)
  Sheela Kirpekar,             Univ. of Southern Denmark, Denmark     (Mass-velocity & Darwin integrals)
  Frederik Oersted Kjeldal,    Technical Univ. of Denmark,Denmark     (MP3)
  Erik Kjellgren,              Univ. of Southern Denmark, Denmark     (MC-srDFT)
  Wim Klopper,                 KIT Karlsruhe,             Germany     (R12 code in CC, SIRIUS, and ABACUS modules)
  Stefan Knecht,               ETH Zurich,                Switzerland (Parallel CI and MCSCF, MC-srDFT)
  Rika Kobayashi,              Australian National Univ., Australia   (DIIS in CC, London in MCSCF)
  Henrik Koch,                 NTNU,                      Norway      (CC module, Cholesky decomposition)
  Jacob Kongsted,              Univ. of Southern Denmark, Denmark     (Polarizable embedding, polarizable density embedding, QM/MM)
  Andrea Ligabue,              University of Modena,      Italy       (CTOCD, AOSOPPA)
  Nanna H. List,               Univ. of Southern Denmark, Denmark     (Polarizable embedding)
  Ola B. Lutnaes,              University of Oslo,        Norway      (DFT Hessian)
  Juan I. Melo,                University of Buenos Aires,Argentina   (LRESC, Relativistic Effects on NMR Shieldings)
  Kurt V. Mikkelsen,           University of Copenhagen,  Denmark     (MC-SCRF, QM/MM, and MP3)
  Rolf H. Myhre,               NTNU,                      Norway      (Subsystems and CC3)
  Christian Neiss,             Univ. Erlangen-Nuernberg,  Germany     (CCSD(R12))
  Christian B. Nielsen,        University of Copenhagen,  Denmark     (QM/MM)
  Patrick Norman,              KTH Stockholm,             Sweden      (Cubic response and complex frequency response in RESPONS)
  Jeppe Olsen,                 Aarhus University,         Denmark     (SIRIUS CI/density modules)
  Jogvan Magnus H. Olsen,      Aarhus University,         Denmark     (Polarizable embedding and polarizable density embedding)
  Anders Osted,                Copenhagen University,     Denmark     (QM/MM)
  Martin J. Packer,            University of Sheffield,   UK          (SOPPA)
  Filip Pawlowski,             Kazimierz Wielki UniversityPoland      (CC3)
  Morten N. Pedersen,          Univ. of Southern Denmark, Denmark     (Polarizable embedding)
  Thomas B. Pedersen,          University of Oslo,        Norway      (Cholesky decomposition)
  Patricio F. Provasi,         University of Northeastern,Argentina   (Analysis of coupling constants in localized orbitals)
  Peter Reinholdt,             Univ. of Southern Denmark, Denmark     (Polarizable embedding and polarizable density embedding)
  Zilvinas Rinkevicius,        KTH Stockholm,             Sweden      (open-shell DFT, ESR)
  Elias Rudberg,               KTH Stockholm,             Sweden      (DFT grid and basis info)
  Torgeir A. Ruden,            University of Oslo,        Norway      (Numerical derivatives in ABACUS)
  Kenneth Ruud,                UiT The Arctic U. of NorwayNorway      (DALTON; ABACUS magnetic properties and much more)
  Pawel Salek,                 KTH Stockholm,             Sweden      (DALTON; DFT code)
  Claire C. M. Samson,         University of Karlsruhe    Germany     (Boys localization, r12 integrals in ERI)
  Alfredo Sanchez de Meras,    University of Valencia,    Spain       (CC module, Cholesky decomposition)
  Trond Saue,                  Paul Sabatier University,  France      (direct Fock matrix construction)
  Stephan P. A. Sauer,         University of Copenhagen,  Denmark     (SOPPA(CCSD), SOPPA prop., AOSOPPA, vibrational g-factors)
  Bernd Schimmelpfennig,       Forschungszentrum KarlsruheGermany     (AMFI module)
  Anna K. Schnack-Petersen,    University of Copenhagen,  Denmark     (RPA(D) and HRPA(D) properties in AOSOPPA)
  Kristian Sneskov,            Aarhus University,         Denmark     (Polarizable embedding, QM/MM)
  Arnfinn H. Steindal,         UiT The Arctic U. of NorwayNorway      (parallel QM/MM, polarizable embedding)
  Casper Steinmann,            Aalborg University,        Denmark     (QFIT, polarizable embedding)
  K. O. Sylvester-Hvid,        University of Copenhagen,  Denmark     (MC-SCRF)
  Peter R. Taylor,             VLSCI/Univ. of Melbourne,  Australia   (Symmetry handling ABACUS, integral transformation)
  Andrew M. Teale,             University of Nottingham,  England     (DFT-AC, DFT-D)
  David P. Tew,                University of Bristol,     England     (CCSD(R12))
  Julien Toulouse,             Sorbonne Univ.,            France      (MC-srDFT)
  Olav Vahtras,                KTH Stockholm,             Sweden      (Triplet response, spin-orbit, ESR, TDDFT, open-shell DFT)
  Lucas Visscher,              Vrije Universiteit AmsterdaNetherlands (Frozen density embedding)
  David J. Wilson,             La Trobe University,       Australia   (DFT Hessian and DFT magnetizabilities)
  Luna Zamok,                  University of Copenhagen,  Denmark     (Block Lanczos RPA solver in SOPPA module)
  Hans Agren,                  KTH Stockholm,             Sweden      (SIRIUS module, RESPONS, MC-SCRF solvation)
 --------------------------------------------------------------------------------

     Date and time (Linux)  : Tue Jul  7 17:01:29 2026
     Host name              : n-62-31-23                              

 * Work memory size             :   512000000 =  3.815 gigabytes.

 * Directories for basis set searches:
   1) /work3/jochar/DaltonTests
   2) /zhome/d7/7/119775/My_Codes/Dalton_Release/dalton/build_omp_nov24/basis


Compilation information
-----------------------

 Who compiled             | soco
 Host                     | hpclogin1
 System                   | Linux-6.1.112-1.el9.elrepo.x86_64
 CMake generator          | Unix Makefiles
 Processor                | x86_64
 64-bit integers          | OFF
 MPI                      | OFF
 Fortran compiler         | /appl/intel/2023.2.0.49397/compiler/2023.2.0/linux
                          | /bin/intel64/ifort
 Fortran compiler version | ifort (IFORT) 2021.10.0 20230609
 C compiler               | /appl/intel/2023.2.0.49397/compiler/2023.2.0/linux
                          | /bin/intel64/icc
 C compiler version       | icc (ICC) 2021.10.0 20230609
 C++ compiler             | /appl/intel/2023.2.0.49397/compiler/2023.2.0/linux
                          | /bin/intel64/icpc
 C++ compiler version     | icpc (ICC) 2021.10.0 20230609
 Static linking           | OFF
 Last Git revision        | a531ac4fbf115ebda1c90140ce3fd6aa236a2033
 Git branch               | master
 Configuration time       | 2024-11-14 11:23:30.470039

 * Sequential calculation.


   Content of the .dal input file
 ----------------------------------

**DALTON INPUT
.RUN WAVE FUNCTIONS   !tipo di calcolo
.RUN RESPONSE
**INTEGRALS
.DIPLEN               !integrali dell'operatore dipolo elettrico
**WAVE FUNCTION
.HF
.CI
!*PRINT
!.PRINTL
!   0 11
*SCF INP              !parte da Hartree-Fock
.DOUBLY OCCUPIED
3
.THRESH               !soglia di convergenza
 1.0D-10
*CONFIGURATION INPUT
.SPIN MULTIPLICITY
1
.SYMMETRY
1
.INACTIVE ORBITALS !the inner electrons are kept frozen
1
.CAS SPACE
4
.ELECTRONS
4
**RESPONS
*LINEAR
.THCLR
1.0d-9
.DIPLEN
.SINGLE RESIDUE
.ROOTS
300
**END OF INPUT


   Content of the .mol file
 ----------------------------

BASIS
cc-pVDZ
test VQE
dalton test
Atomtypes=2 Angstrom Nosymmetry
Charge=4.0 Atoms=1
Be    0.0000000000000000  0.0000000000000000  0.0
Charge=1.0 Atoms=2
H     1.3300000000000000  0.0000000000000000  0.0
H    -1.3300000000000000  0.0000000000000000  0.0


       *******************************************************************
       *********** Output from DALTON general input processing ***********
       *******************************************************************

 --------------------------------------------------------------------------------
   Overall default print level:    0
   Print level for DALTON.STAT:    1

    HERMIT 1- and 2-electron integral sections will be executed
    "Old" integral transformation used (limited to max 255 basis functions)
    Wave function sections will be executed (SIRIUS module)
    Dynamic molecular response properties section will be executed (RESPONSE module)
 --------------------------------------------------------------------------------


   ****************************************************************************
   *************** Output of molecule and basis set information ***************
   ****************************************************************************


    The two title cards from your ".mol" input:
    --------------------------------------------------------------------------------
 1: test VQE
 2: dalton test
    --------------------------------------------------------------------------------

  Coordinates are entered in Angstrom and converted to atomic units.
          - Conversion factor : 1 bohr = 0.52917721 A

  Atomic type no.    1
  --------------------
  Nuclear charge:   4.00000
  Number of symmetry independent centers:    1
  Number of basis sets to read;    2
  Basis set file used for this atomic type with Z =   4 :
     "/zhome/d7/7/119775/My_Codes/Dalton_Release/dalton/build_omp_nov24/basis/cc-pVDZ"

  Atomic type no.    2
  --------------------
  Nuclear charge:   1.00000
  Number of symmetry independent centers:    2
  Number of basis sets to read;    2
  Basis set file used for this atomic type with Z =   1 :
     "/zhome/d7/7/119775/My_Codes/Dalton_Release/dalton/build_omp_nov24/basis/cc-pVDZ"


                         SYMGRP: Point group information
                         -------------------------------

@    Point group: C1 


                                 Isotopic Masses
                                 ---------------

                           Be          9.012183
                           H           1.007825
                           H           1.007825

                       Total mass:    11.027833 amu
                       Natural abundance:  99.970 %

 Center-of-mass coordinates (a.u.):    0.000000    0.000000    0.000000
 Center-of-mass coordinates (Angs):    0.000000    0.000000    0.000000


  Atoms and basis sets
  --------------------

  Number of atom types :    2
  Total number of atoms:    3

  Basis set used is "cc-pVDZ" from the basis set library.

  label    atoms   charge   prim   cont     basis
  ----------------------------------------------------------------------
  Be          1    4.0000    26    14      [9s4p1d|3s2p1d]                                    
  H           2    1.0000     7     5      [4s1p|2s1p]                                        
  ----------------------------------------------------------------------
  total:      3    6.0000    40    24
  ----------------------------------------------------------------------
  Spherical harmonic basis used.

  Threshold for neglecting AO integrals:  1.00D-12


  Cartesian Coordinates (a.u.)
  ----------------------------

  Total number of coordinates:    9
  Be      :     1  x   0.0000000000    2  y   0.0000000000    3  z   0.0000000000
  H       :     4  x   2.5133357462    5  y   0.0000000000    6  z   0.0000000000
  H       :     7  x  -2.5133357462    8  y   0.0000000000    9  z   0.0000000000


   Interatomic separations (in Angstrom):
   --------------------------------------

            Be          H           H     
            ------      ------      ------
 Be    :    0.000000
 H     :    1.330000    0.000000
 H     :    1.330000    2.660000    0.000000


  Max    interatomic separation is    2.6600 Angstrom (    5.0267 Bohr)
  between atoms    3 and    2, "H     " and "H     ".

  Min HX interatomic separation is    1.3300 Angstrom (    2.5133 Bohr)


  Bond distances (Angstrom):
  --------------------------

                  atom 1     atom 2       distance
                  ------     ------       --------
  bond distance:  H          Be           1.330000
  bond distance:  H          Be           1.330000


  Bond angles (degrees):
  ----------------------

                  atom 1     atom 2     atom 3         angle
                  ------     ------     ------         -----
  bond angle:     H          Be         H            180.000




 Principal moments of inertia (u*A**2) and principal axes
 --------------------------------------------------------

   IA       0.000000          1.000000    0.000000    0.000000
   IB       3.565483          0.000000    1.000000    0.000000
   IC       3.565483          0.000000    0.000000    1.000000


 Rotational constants
 --------------------

@    The molecule is linear.

               B =       141742.08 MHz     (    4.728007 cm-1)


@  Nuclear repulsion energy :    3.381959617895 Hartree


                     .---------------------------------------.
                     | Starting in Integral Section (HERMIT) |
                     `---------------------------------------'



 ***************************************************************************************
 ****************** Output from **INTEGRALS input processing (HERMIT) ******************
 ***************************************************************************************



    *************************************************************************
    ****************** Output from HERMIT input processing ******************
    *************************************************************************


 Default print level:        1

 Calculation of one- and two-electron Hamiltonian integrals.

 The following one-electron property integrals are calculated as requested:
          - overlap integrals
          - dipole length integrals

 Center of mass  (bohr):      0.000000000000      0.000000000000      0.000000000000
 Operator center (bohr):      0.000000000000      0.000000000000      0.000000000000
 Gauge origin    (bohr):      0.000000000000      0.000000000000      0.000000000000
 Dipole origin   (bohr):      0.000000000000      0.000000000000      0.000000000000

Calculation of 2-electron integrals are postponed until they are needed.


     ************************************************************************
     ************************** Output from HERINT **************************
     ************************************************************************



                      Nuclear contribution to dipole moments
                      --------------------------------------

                 au               Debye          C m (/(10**-30)

      x      0.00000000         0.00000000         0.00000000
      y      0.00000000         0.00000000         0.00000000
      z      0.00000000         0.00000000         0.00000000


  Total CPU  time used in HERMIT:   0.02 seconds
  Total wall time used in HERMIT:   0.08 seconds


                        .----------------------------------.
                        | End of Integral Section (HERMIT) |
                        `----------------------------------'



                   .--------------------------------------------.
                   | Starting in Wave Function Section (SIRIUS) |
                   `--------------------------------------------'


     WARNING  Reference state is required for CI response and CI-NO
     WARNING  ".STATE" was not specified for "*CI INPUT",
     WARNING  the reference state is set to be state no.  1

 *** Output from Huckel module :

     Using EWMO model:          T
     Using EHT  model:          F
     Number of Huckel orbitals each symmetry:    7

 EWMO - Energy Weighted Maximum Overlap - is a Huckel type method,
        which normally is better than Extended Huckel Theory.
 Reference: Linderberg and Ohrn, Propagators in Quantum Chemistry (Wiley, 1973)

 Huckel EWMO eigenvalues for symmetry :  1
           -4.742490      -0.737104      -0.620322      -0.206000      -0.206000
           -0.103312      -0.044772

 **********************************************************************
 *SIRIUS* a direct, restricted step, second order MCSCF program       *
 **********************************************************************

 
     Date and time (Linux)  : Tue Jul  7 17:01:29 2026
     Host name              : n-62-31-23                              

 Title lines from ".mol" input file:
     test VQE
     dalton test

 Print level on unit LUPRI =   2 is   0
 Print level on unit LUW4  =   2 is   5

@    Configuration interaction calculation.

@    CI response calculation.

@    CI type: user specified active spaces.
@              Type: complete active space calculation (CAS).

@    This is a combination run starting with
@              a restricted, closed shell Hartree-Fock calculation


 Initial molecular orbitals are obtained according to
 ".MOSTART EWMO  " input option

     Wave function specification
     ============================
@    Wave function type        --- CI ---
@    Number of closed shell electrons           2
@    Number of electrons in active shells       4
@    Total charge of the molecule               0

@    Spin multiplicity and 2 M_S                1         0
@    Total number of symmetries                 1 (point group: C1 )
@    Reference state symmetry                   1 (irrep name : A  )

     Orbital specifications
     ======================
@    Abelian symmetry species          All |    1
@                                          |  A  
                                       --- |  ---
@    Inactive orbitals                   1 |    1
@    Active orbitals                     4 |    4
@    Secondary orbitals                 19 |   19
@    Total number of orbitals           24 |   24
@    Number of basis functions          24 |   24

      -- Initial occupation of symmetries is determined from user input.                      
      -- Initial occupation of symmetries is :
@    Occupied SCF orbitals               3 |    3

     Optimization information
     ========================
@    Number of configurations                20
@    Number of orbital rotations              0
     ------------------------------------------
@    Total number of variables               20

     Maximum number of CI iterations         25
     Threshold for CI convergence      1.00D-05
     Number of CI roots to converge           1

@    Reference state in CI response calculation :       1


 ***********************************************
 ***** DIIS acceleration of SCF iterations *****
 ***********************************************

 C1-DIIS algorithm; max error vectors =    8

 Iter      Total energy        Error norm    Delta(E)  DIIS dim.
 -----------------------------------------------------------------------------

Calculating AOSUPINT

---> (Re)generating AOTWOINT


     ************************************************************************
     ************************** Output from HERINT **************************
     ************************************************************************


 Threshold for neglecting two-electron integrals:  1.00D-12
 HERMIT - Number of two-electron integrals written:       12262 ( 27.2% )
 HERMIT - Megabytes written:                              0.275

     (Precalculated AO two-electron integrals are transformed to P-supermatrix elements.
      Threshold for discarding integrals :  1.00D-12 )

@  1    -15.7172205870        6.44086D-01   -1.57D+01    1
      Virial theorem: -V/T =      2.002756
@    MULPOP   Be      0.79; H      -0.39; H      -0.39; 
   1  Level shift: doubly occupied orbital energies shifted by -2.00D-01
 -----------------------------------------------------------------------------
@  2    -15.7637386627        1.63059D-01   -4.65D-02    2
      Virial theorem: -V/T =      2.002784
@    MULPOP   Be      0.37; H      -0.19; H      -0.19; 
   2  Level shift: doubly occupied orbital energies shifted by -1.00D-01
 -----------------------------------------------------------------------------
@  3    -15.7672525785        1.96409D-02   -3.51D-03    3
      Virial theorem: -V/T =      2.000677
@    MULPOP   Be      0.23; H      -0.12; H      -0.12; 
   3  Level shift: doubly occupied orbital energies shifted by -2.50D-02
 -----------------------------------------------------------------------------
@  4    -15.7673187437        1.44808D-03   -6.62D-05    4
      Virial theorem: -V/T =      2.000149
@    MULPOP   Be      0.22; H      -0.11; H      -0.11; 
 -----------------------------------------------------------------------------
@  5    -15.7673192244        1.19569D-04   -4.81D-07    5
      Virial theorem: -V/T =      2.000103
@    MULPOP   Be      0.22; H      -0.11; H      -0.11; 
 -----------------------------------------------------------------------------
@  6    -15.7673192276        9.52114D-06   -3.18D-09    6
      Virial theorem: -V/T =      2.000103
@    MULPOP   Be      0.22; H      -0.11; H      -0.11; 
 -----------------------------------------------------------------------------
@  7    -15.7673192276        6.73370D-07   -2.13D-11    7
      Virial theorem: -V/T =      2.000104
@    MULPOP   Be      0.22; H      -0.11; H      -0.11; 
 -----------------------------------------------------------------------------
@  8    -15.7673192276        8.11489D-08   -1.14D-13    8
      Virial theorem: -V/T =      2.000104
@    MULPOP   Be      0.22; H      -0.11; H      -0.11; 
 -----------------------------------------------------------------------------
@  9    -15.7673192276        1.45192D-09    0.00D+00    8
      Virial theorem: -V/T =      2.000104
@    MULPOP   Be      0.22; H      -0.11; H      -0.11; 
 -----------------------------------------------------------------------------
@ 10    -15.7673192276        2.17721D-10   -7.11D-15    8
      Virial theorem: -V/T =      2.000104
@    MULPOP   Be      0.22; H      -0.11; H      -0.11; 
 -----------------------------------------------------------------------------
@ 11    -15.7673192276        3.32062D-11    3.55D-15    8

@ *** DIIS converged in  11 iterations !
@     Converged SCF energy, gradient:    -15.767319227642    3.32D-11
    - total time used in SIRFCK :              0.00 seconds

 --- Writing SIRIFC interface file

--------------------------------------------------------------------------------


     .--------------------------------------------------.
     | HF-SCF KT IPs [a.u. & eV] from Koopmans' theorem |
     `--------------------------------------------------'


     HF-SCF KT symmetry 1 ( A  ) in point group C1  -- 3 principal poles with pole strength 1

   ============  ============  ============
       4.679745      0.488952      0.446625
     127.342350     13.305069     12.153289
   ============  ============  ============

@ Summary of HF-SCF KT ionization potentials [eV]:

@ Symmetry 1 (A  ) :   127.342      13.305      12.153

  === End of HF-SCF KT output ===
--------------------------------------------------------------------------------


 CPU and wall time for SCF :       0.092       0.454


 ----- Output from SIRIUS CI module (CICTL) -----




 2-el. integral transformation level 0: Total CPU and WALL times (sec)       0.011       0.036

 (CIST1) 8 lowest diagonal elements:

 Element no. Config.no.    Active energy      Total energy

         1 :          1     -3.9471306817    -15.7673192276
         2 :          7     -3.6799238007    -15.5001123467
         3 :          8     -3.6799238007    -15.5001123467
         4 :         10     -3.6254785615    -15.4456671075
         5 :         11     -3.6254785615    -15.4456671075
         6 :         19     -3.3034544820    -15.1236430280
         7 :         20     -3.3034544820    -15.1236430280
         8 :          9     -3.2866995639    -15.1068881099

Lowest 1 elements are used as separate start CI vectors.


 Convergence threshold for CI optimization :     0.00001000


 CI root     eigenvalue        residual norm

    1      -15.7673192276        0.0411541860

 CI root     eigenvalue        residual norm

    1      -15.7692649516        0.0060952865

 CI root     eigenvalue        residual norm

    1      -15.7693253660        0.0004862560

 CI root     eigenvalue        residual norm

    1      -15.7693255201        0.0000000000 converged

 The requested root number is now converged.


 *** CI converged in  4 iterations.



@ Final CI energies and residuals in symmetry 1 (irrep A  )
@    1      -15.769325520090581       4.80D-16

 Writing SIRIFC interface file for CI root no. 1

 CPU and wall time for CI :       0.020       0.130


                       .-----------------------------------.
                       | --- Final results from SIRIUS --- |
                       `-----------------------------------'


@    Spin multiplicity:           1
@    Spatial symmetry:            1 ( irrep  A   in C1  )
@    Total charge of molecule:    0

@    This was a CI calculation.
@    State number:                1

@    Final CI energy:             -15.769325520091
@    Nuclear repulsion:             3.381959617895
@    Electronic energy:           -19.151285137985

@    Final gradient norm:           0.000000000000

 
     Date and time (Linux)  : Tue Jul  7 17:01:30 2026
     Host name              : n-62-31-23                              

 Occupancies of natural orbitals
 -------------------------------

 Symmetry 1  ( A  ) -- Total occupation in this symmetry is   6.000000000

   2.000000000   1.995225536   1.999883584   0.002445440   0.002445440

  Effective numbers of unpaired electrons this symmetry Eqs. 1) and 2):  0.02  0.00

  Total effective number of unpaired electrons :
  Eq. 1) sum(i) [(2 - n_i) n_i]    =  0.0195
  Eq. 2) sum(i) [(2 - n_i) n_i]**2 =  0.0001
 (Reference: M. Head-Gordon, Chemical Physics Letters 372 (2003) 508-511)

File label for MO orbitals:   7Jul26    CIORB  

 (Only coefficients > 0.0100 are printed.)

 Molecular orbitals for symmetry species 1  (A  )
 ------------------------------------------------

    Orbital         1        2        3        4        5        6        7
   1 Be  :1s     1.0010  -0.0416   0.0000  -0.0000  -0.0000  -0.1054   0.0000
   2 Be  :1s     0.0026   0.3322   0.0000  -0.0000  -0.0000  -0.1746   0.0000
   3 Be  :1s    -0.0034   0.1569  -0.0000  -0.0000  -0.0000   2.3602   0.0000
   4 Be  :2px    0.0000   0.0000  -0.4033   0.0000  -0.0000  -0.0000   0.1981
   5 Be  :2py   -0.0000   0.0000  -0.0000   0.0228  -0.2516  -0.0000   0.0000
   6 Be  :2pz    0.0000   0.0000  -0.0000   0.2516   0.0228   0.0000   0.0000
   7 Be  :2px   -0.0000  -0.0000  -0.1288   0.0000  -0.0000   0.0000  -2.3709
   8 Be  :2py   -0.0000   0.0000  -0.0000   0.0745  -0.8223  -0.0000   0.0000
   9 Be  :2pz    0.0000   0.0000  -0.0000   0.8223   0.0745   0.0000   0.0000
  12 Be  :3d0   -0.0006  -0.0175  -0.0000   0.0000   0.0000  -0.0473   0.0000
  14 Be  :3d2+   0.0010   0.0303   0.0000  -0.0000  -0.0000   0.0820  -0.0000
  15 H   :1s     0.0018   0.4686  -0.5263  -0.0000   0.0000  -0.3032   0.0815
  16 H   :1s    -0.0015  -0.0626   0.1386   0.0000  -0.0000  -0.9850   1.3243
  17 H   :2px   -0.0009  -0.0195   0.0146  -0.0000  -0.0000   0.0301  -0.0196
  18 H   :2py   -0.0000   0.0000  -0.0000   0.0010  -0.0111  -0.0000   0.0000
  19 H   :2pz    0.0000   0.0000  -0.0000   0.0111   0.0010   0.0000   0.0000
  20 H   :1s     0.0018   0.4686   0.5263   0.0000   0.0000  -0.3032  -0.0815
  21 H   :1s    -0.0015  -0.0626  -0.1386  -0.0000  -0.0000  -0.9850  -1.3243
  22 H   :2px    0.0009   0.0195   0.0146   0.0000   0.0000  -0.0301  -0.0196
  23 H   :2py   -0.0000   0.0000  -0.0000   0.0010  -0.0111  -0.0000   0.0000
  24 H   :2pz    0.0000   0.0000  -0.0000   0.0111   0.0010   0.0000   0.0000

    Orbital         8        9       10       11       12       13       14
   1 Be  :1s    -0.6189   0.0000  -0.0000   0.0000   0.2482  -0.0000   0.0000
   2 Be  :1s    -1.6988   0.0000  -0.0000   0.0000   0.3942   0.0000   0.0000
   3 Be  :1s     0.6278   0.0000  -0.0000   0.0000   1.9713   0.0000   0.0000
   4 Be  :2px    0.0000   0.0000   0.0000  -1.4128  -0.0000   0.0000   0.0000
   5 Be  :2py    0.0000   1.2025   0.0116   0.0000   0.0000   0.0000   0.0000
   6 Be  :2pz   -0.0000  -0.0116   1.2025   0.0000  -0.0000   0.0000  -0.0000
   7 Be  :2px   -0.0000   0.0000   0.0000  -1.8243   0.0000   0.0000  -0.0000
   8 Be  :2py    0.0000  -0.9253  -0.0089   0.0000   0.0000   0.0000  -0.0000
   9 Be  :2pz   -0.0000   0.0089  -0.9253   0.0000  -0.0000  -0.0000  -0.0000
  10 Be  :3d2-   0.0000  -0.0000  -0.0000  -0.0000   0.0000   0.0000   0.9769
  12 Be  :3d0   -0.0506  -0.0000   0.0000   0.0000  -0.5125  -0.0000  -0.0000
  13 Be  :3d1+   0.0000   0.0000  -0.0000   0.0000   0.0000   0.9769   0.0000
  14 Be  :3d2+   0.0877   0.0000  -0.0000  -0.0000   0.8877   0.0000   0.0000
  15 H   :1s     0.0145  -0.0000  -0.0000  -0.1290   0.5894  -0.0000  -0.0000
  16 H   :1s     0.6033   0.0000   0.0000   2.5464  -2.2145  -0.0000   0.0000
  17 H   :2px    0.0091   0.0000  -0.0000   0.0274   0.1113   0.0000   0.0000
  18 H   :2py    0.0000   0.0242   0.0002   0.0000   0.0000   0.0000   0.0275
  19 H   :2pz   -0.0000  -0.0002   0.0242   0.0000  -0.0000   0.0275  -0.0000
  20 H   :1s     0.0145  -0.0000   0.0000   0.1290   0.5894  -0.0000  -0.0000
  21 H   :1s     0.6033   0.0000  -0.0000  -2.5464  -2.2145   0.0000   0.0000
  22 H   :2px   -0.0091  -0.0000   0.0000   0.0274  -0.1113   0.0000   0.0000
  23 H   :2py    0.0000   0.0242   0.0002   0.0000   0.0000   0.0000  -0.0275
  24 H   :2pz   -0.0000  -0.0002   0.0242   0.0000  -0.0000  -0.0275  -0.0000

    Orbital        15
  11 Be  :3d1-   1.0000

 Printout of CI-coefficients abs greater than 0.05000 for root  1
 *** NOTE: this root is the CI reference state ***

 Printout of coefficients in interval  3.1623E-01 to  1.0000E+00
 ===============================================================

  Coefficient of CSF no.         1 is      0.99877671    9.98776713E-01
  Orbital          1   2
  Spin coupling    2   2

 Printout of coefficients in interval  1.0000E-01 to  3.1623E-01
 ===============================================================
   ( no coefficients )

 Printout of coefficients in interval  5.0000E-02 to  1.0000E-01
 ===============================================================
   ( no coefficients )

 Norm of printed CI vector ..      0.99755492

 Magnitude of CI coefficients
 ============================
 ( Ranges are relative to norm of vector :  1.00E+00 )

  10- 1 to 10- 0         1    0.99755492E+00      0.9975549227
  10- 2 to 10- 1         2    0.23868693E-02      0.9999417920
  10- 3 to 10- 2         2    0.57845418E-04      0.9999996374
  10- 4 to 10- 3         1    0.36255802E-06      1.0000000000
  Number of coefficients less than 10^-11 times norm is           14

  Total CPU  time used in SIRIUS :   0.13 seconds
  Total wall time used in SIRIUS :   0.75 seconds

 
     Date and time (Linux)  : Tue Jul  7 17:01:30 2026
     Host name              : n-62-31-23                              


                     .---------------------------------------.
                     | End of Wave Function Section (SIRIUS) |
                     `---------------------------------------'



                 .------------------------------------------------.
                 | Starting in Dynamic Property Section (RESPONS) |
                 `------------------------------------------------'


 ----------------------------------------------------------------------------------------
  RESPONSE  -  an MCSCF, MC-srDFT, DFT, SOPPA and SOPPA-srDFT response property program
 ----------------------------------------------------------------------------------------

 This is a configuration interaction response calculation.
   Note: this is equivalent to a CI sum-over-states calculation of response properties.


 -------- OUTPUT FROM RESPONSE INPUT PROCESSING --------




  Linear Response single residue calculation
 -------------------------------------------


    4 input options by user.

 Print level                                    : IPRPP  =   2
 Maximum number of iterations for eigenval.eqs. : MAXITP =  60
 Threshold for convergence of eigenvalue eqs.   : THCPP  = 1.000D-03
 Maximum iterations in optimal orbital algorithm: MAXITO =   5

    300 Excitation energies are calculated for symmetry no.    1

      3 property residues are calculated with labels:

               XDIPLEN 
               YDIPLEN 
               ZDIPLEN 

 Old direct access AO file found, SORTA skipped.

 2-el. integral transformation level 4: Total CPU and WALL times (sec)       0.014       0.065


 CI energy            :      -15.769325520090581
 -- inactive part     :      -11.820188545976887
 --   active part     :       -3.949136974113694
 -- nuclear repulsion :        3.381959617894736


                         *******************************
                         *** CI response calculation ***
                         *******************************

 ----------------------------------------------------------------
 ----- Linear response calculation
 ----- Symmetry of excitation/property operator(s)    1  ( A  )
 ----------------------------------------------------------------

 Number of excitations of this symmetry          300
 Number of response properties of this symmetry    0
 Number of C6/C8 properties of this symmetry       0


 Perturbation symmetry.     KSYMOP:           1
 Perturbation spin symmetry.TRPLET:           F
 Orbital variables.         KZWOPT:           0
 Configuration variables.   KZCONF:          20
 Total number of variables. KZVAR :          20

 ** RSPVAR ** Number of PP start vectors  300
   exceeds the maximum number of variables   19
   Number of start vectors reset to number of variables



 --- EXCITATION ENERGIES AND TRANSITION MOMENT CALCULATION (MCTDHF) ---

 Operator symmetry = 1  ( A  ); triplet =   F

RSPORT:    1 out of   20 new trial vectors linear dependent

 ** RSPCTL MICROITERATION NUMBER    1

      Root  Residual tot.,    conf., and orb.    Bnorm      Eigenvalue
      ----------------------------------------------------------------
         1    3.05748D-16  3.06D-16  0.00D+00  1.00D+00    2.77695D-01
         2    5.48969D-16  5.49D-16  0.00D+00  1.00D+00    2.77695D-01
         3    2.60627D-16  2.61D-16  0.00D+00  1.00D+00    3.51078D-01
         4    4.34565D-16  4.35D-16  0.00D+00  1.00D+00    3.51078D-01
         5    7.90426D-16  7.90D-16  0.00D+00  1.00D+00    5.43524D-01
         6    9.11343D-16  9.11D-16  0.00D+00  1.00D+00    5.43524D-01
         7    6.79392D-16  6.79D-16  0.00D+00  1.00D+00    5.71265D-01
         8    7.63761D-16  7.64D-16  0.00D+00  1.00D+00    5.89416D-01
         9    1.24727D-15  1.25D-15  0.00D+00  1.00D+00    8.69052D-01
        10    1.12517D-15  1.13D-15  0.00D+00  1.00D+00    8.69052D-01
        11    6.90255D-16  6.90D-16  0.00D+00  1.00D+00    8.75954D-01
        12    8.79985D-16  8.80D-16  0.00D+00  1.00D+00    8.75954D-01
        13    1.59238D-15  1.59D-15  0.00D+00  1.00D+00    8.96916D-01
        14    5.84043D-16  5.84D-16  0.00D+00  1.00D+00    9.03652D-01
        15    1.14269D-15  1.14D-15  0.00D+00  1.00D+00    1.09761D+00
        16    3.28375D-15  3.28D-15  0.00D+00  1.00D+00    1.09761D+00
        17    8.46483D-16  8.46D-16  0.00D+00  1.00D+00    1.10264D+00
        18    1.45746D-15  1.46D-15  0.00D+00  1.00D+00    1.10264D+00
        19    9.58632D-16  9.59D-16  0.00D+00  1.00D+00    1.57369D+00
        20    3.05748D-16  3.06D-16  0.00D+00  1.00D+00   -2.77695D-01

 *** THE REQUESTED   19 SOLUTION VECTORS CONVERGED

 Convergence of RSP solution vectors, threshold = 1.00D-03
 ---------------------------------------------------------------
 (dimension of paired reduced space:   38)
 RSP solution vector no.    1; norm of residual   3.06D-16
 RSP solution vector no.    2; norm of residual   5.49D-16
 RSP solution vector no.    3; norm of residual   2.61D-16
 RSP solution vector no.    4; norm of residual   4.35D-16
 RSP solution vector no.    5; norm of residual   7.90D-16
 RSP solution vector no.    6; norm of residual   9.11D-16
 RSP solution vector no.    7; norm of residual   6.79D-16
 RSP solution vector no.    8; norm of residual   7.64D-16
 RSP solution vector no.    9; norm of residual   1.25D-15
 RSP solution vector no.   10; norm of residual   1.13D-15
 RSP solution vector no.   11; norm of residual   6.90D-16
 RSP solution vector no.   12; norm of residual   8.80D-16
 RSP solution vector no.   13; norm of residual   1.59D-15
 RSP solution vector no.   14; norm of residual   5.84D-16
 RSP solution vector no.   15; norm of residual   1.14D-15
 RSP solution vector no.   16; norm of residual   3.28D-15
 RSP solution vector no.   17; norm of residual   8.46D-16
 RSP solution vector no.   18; norm of residual   1.46D-15
 RSP solution vector no.   19; norm of residual   9.59D-16

 *** RSPCTL MICROITERATIONS CONVERGED

@ Singlet transition operator label: XDIPLEN 
@ STATE NO:    1 *TRANSITION MOMENT: -4.87530442E-16 *ENERGY(eV):   7.5564573    
@ STATE NO:    2 *TRANSITION MOMENT: -4.42848883E-17 *ENERGY(eV):   7.5564573    
@ STATE NO:    3 *TRANSITION MOMENT: -6.82877108E-18 *ENERGY(eV):   9.5533316    
@ STATE NO:    4 *TRANSITION MOMENT: -1.25233422E-16 *ENERGY(eV):   9.5533316    
@ STATE NO:    5 *TRANSITION MOMENT:  7.40370966E-17 *ENERGY(eV):   14.790033    
@ STATE NO:    6 *TRANSITION MOMENT:  4.64746428E-17 *ENERGY(eV):   14.790033    
@ STATE NO:    7 *TRANSITION MOMENT: -9.22143995E-16 *ENERGY(eV):   15.544905    
@ STATE NO:    8 *TRANSITION MOMENT:  1.11061637E-17 *ENERGY(eV):   16.038822    
@ STATE NO:    9 *TRANSITION MOMENT: -4.99600361E-16 *ENERGY(eV):   23.648099    
@ STATE NO:   10 *TRANSITION MOMENT: -9.02056208E-17 *ENERGY(eV):   23.648099    
@ STATE NO:   11 *TRANSITION MOMENT:  1.52666754E-15 *ENERGY(eV):   23.835934    
@ STATE NO:   12 *TRANSITION MOMENT:  2.10512771E-16 *ENERGY(eV):   23.835934    
@ STATE NO:   13 *TRANSITION MOMENT: -0.16387612     *ENERGY(eV):   24.406315    
@ STATE NO:   14 *TRANSITION MOMENT: -1.30880343E-14 *ENERGY(eV):   24.589621    
@ STATE NO:   15 *TRANSITION MOMENT:  1.93543320E-17 *ENERGY(eV):   29.867475    

@ Singlet transition operator label: YDIPLEN 
@ STATE NO:    1 *TRANSITION MOMENT:  4.69403789E-15 *ENERGY(eV):   7.5564573    
@ STATE NO:    2 *TRANSITION MOMENT:  3.99402224E-15 *ENERGY(eV):   7.5564573    
@ STATE NO:    3 *TRANSITION MOMENT:   1.4583015     *ENERGY(eV):   9.5533316    
@ STATE NO:    4 *TRANSITION MOMENT: -0.11373488     *ENERGY(eV):   9.5533316    
@ STATE NO:    5 *TRANSITION MOMENT: -5.81105597E-17 *ENERGY(eV):   14.790033    
@ STATE NO:    6 *TRANSITION MOMENT:  1.71516826E-17 *ENERGY(eV):   14.790033    
@ STATE NO:    7 *TRANSITION MOMENT: -2.64316837E-16 *ENERGY(eV):   15.544905    
@ STATE NO:    8 *TRANSITION MOMENT: -5.06322651E-17 *ENERGY(eV):   16.038822    
@ STATE NO:    9 *TRANSITION MOMENT:  1.75293606E-17 *ENERGY(eV):   23.648099    
@ STATE NO:   10 *TRANSITION MOMENT: -9.53533597E-17 *ENERGY(eV):   23.648099    
@ STATE NO:   11 *TRANSITION MOMENT:  7.55446199E-17 *ENERGY(eV):   23.835934    
@ STATE NO:   12 *TRANSITION MOMENT:  9.20163547E-17 *ENERGY(eV):   23.835934    
@ STATE NO:   13 *TRANSITION MOMENT: -3.85129746E-16 *ENERGY(eV):   24.406315    
@ STATE NO:   14 *TRANSITION MOMENT:  3.27850826E-17 *ENERGY(eV):   24.589621    
@ STATE NO:   15 *TRANSITION MOMENT: -2.31825077E-15 *ENERGY(eV):   29.867475    

@ Singlet transition operator label: ZDIPLEN 
@ STATE NO:    1 *TRANSITION MOMENT:  1.45092767E-15 *ENERGY(eV):   7.5564573    
@ STATE NO:    2 *TRANSITION MOMENT:  4.76955684E-15 *ENERGY(eV):   7.5564573    
@ STATE NO:    3 *TRANSITION MOMENT:  3.01475259E-02 *ENERGY(eV):   9.5533316    
@ STATE NO:    4 *TRANSITION MOMENT:  -1.4541721     *ENERGY(eV):   9.5533316    
@ STATE NO:    5 *TRANSITION MOMENT:  1.03488906E-15 *ENERGY(eV):   14.790033    
@ STATE NO:    6 *TRANSITION MOMENT: -4.13743075E-16 *ENERGY(eV):   14.790033    
@ STATE NO:    7 *TRANSITION MOMENT: -3.15732594E-16 *ENERGY(eV):   15.544905    
@ STATE NO:    8 *TRANSITION MOMENT:  3.05640857E-16 *ENERGY(eV):   16.038822    
@ STATE NO:    9 *TRANSITION MOMENT:  1.47376554E-16 *ENERGY(eV):   23.648099    
@ STATE NO:   10 *TRANSITION MOMENT: -8.12341355E-17 *ENERGY(eV):   23.648099    
@ STATE NO:   11 *TRANSITION MOMENT:  1.41742913E-16 *ENERGY(eV):   23.835934    
@ STATE NO:   12 *TRANSITION MOMENT: -4.21486248E-17 *ENERGY(eV):   23.835934    
@ STATE NO:   13 *TRANSITION MOMENT: -3.79888779E-16 *ENERGY(eV):   24.406315    
@ STATE NO:   14 *TRANSITION MOMENT: -1.42083351E-17 *ENERGY(eV):   24.589621    
@ STATE NO:   15 *TRANSITION MOMENT:  9.86797385E-16 *ENERGY(eV):   29.867475    


 **************************************************************************************
 *** @ Excit. operator sym 1 & ref. state sym 1 => excited state symmetry 1  ( A  ) ***
 **************************************************************************************



 @ Excited state no:    1 in symmetry 1  ( A  ) - singlet excitation
 -------------------------------------------------------------------

@ Excitation energy :  0.27769471     au
@                       7.5564573     eV;   60946.943     cm-1;   729.08734     kJ / mol

@ Total energy :       -15.491631     au

@ Operator label: XDIPLEN ; Transition moment : -4.87530442E-16 au
@ Oscillator strength (LENGTH)   :  4.40027498E-32  (X-polarization)

@ Operator label: YDIPLEN ; Transition moment :  4.69403789E-15 au
@ Oscillator strength (LENGTH)   :  4.07914856E-30  (Y-polarization)

@ Operator label: ZDIPLEN ; Transition moment :  1.45092767E-15 au
@ Oscillator strength (LENGTH)   :  3.89733618E-31  (Z-polarization)
@ Total oscillator strength (LENGTH)   :  4.51288492E-30

 Eigenvector for state no.  1

      Index(conf)                         Z operator          Y operator
      ----------                      --------------      --------------
           7                            0.1997972223        0.0000000000
           8                            0.9792608232        0.0000000000

       18 elements with absolute value ≤ 1.00D-01 are not printed.

 Printout of coefficients in interval  3.1623E-01 to  1.0000E+00
 ===============================================================

  Coefficient of CSF no.         8 is      0.97926082    9.79260823E-01
  Orbital          1   2   4
  Spin coupling    2   1  -1

 Printout of coefficients in interval  1.0000E-01 to  3.1623E-01
 ===============================================================

  Coefficient of CSF no.         7 is      0.19979722    1.99797222E-01
  Orbital          1   2   3
  Spin coupling    2   1  -1

 Norm of printed CI vector ..      0.99887069

 Magnitude of CI coefficients
 ============================
 ( Ranges are relative to norm of vector :  1.00E+00 )

  10- 1 to 10- 0         2    0.99887069E+00      0.9988706899
  10- 2 to 10- 1         1    0.10841783E-02      0.9999548682
  10- 3 to 10- 2         1    0.45131818E-04      1.0000000000
  Number of coefficients less than 10^-11 times norm is           16


 @ Excited state no:    2 in symmetry 1  ( A  ) - singlet excitation
 -------------------------------------------------------------------

@ Excitation energy :  0.27769471     au
@                       7.5564573     eV;   60946.943     cm-1;   729.08734     kJ / mol

@ Total energy :       -15.491631     au

@ Operator label: XDIPLEN ; Transition moment : -4.42848883E-17 au
@ Oscillator strength (LENGTH)   :  3.63067561E-34  (X-polarization)

@ Operator label: YDIPLEN ; Transition moment :  3.99402224E-15 au
@ Oscillator strength (LENGTH)   :  2.95323018E-30  (Y-polarization)

@ Operator label: ZDIPLEN ; Transition moment :  4.76955684E-15 au
@ Oscillator strength (LENGTH)   :  4.21145726E-30  (Z-polarization)
@ Total oscillator strength (LENGTH)   :  7.16505050E-30

 Eigenvector for state no.  2

      Index(conf)                         Z operator          Y operator
      ----------                      --------------      --------------
           7                           -0.9816198912        0.0000000000
           8                            0.1878645233        0.0000000000

       18 elements with absolute value ≤ 1.00D-01 are not printed.

 Printout of coefficients in interval  3.1623E-01 to  1.0000E+00
 ===============================================================

  Coefficient of CSF no.         7 is     -0.98161989   -9.81619891E-01
  Orbital          1   2   3
  Spin coupling    2   1  -1

 Printout of coefficients in interval  1.0000E-01 to  3.1623E-01
 ===============================================================

  Coefficient of CSF no.         8 is      0.18786452    1.87864523E-01
  Orbital          1   2   4
  Spin coupling    2   1  -1

 Norm of printed CI vector ..      0.99887069

 Magnitude of CI coefficients
 ============================
 ( Ranges are relative to norm of vector :  1.00E+00 )

  10- 1 to 10- 0         2    0.99887069E+00      0.9988706899
  10- 2 to 10- 1         1    0.10894082E-02      0.9999600981
  10- 3 to 10- 2         1    0.39901892E-04      1.0000000000
  Number of coefficients less than 10^-11 times norm is           16


 @ Excited state no:    3 in symmetry 1  ( A  ) - singlet excitation
 -------------------------------------------------------------------

@ Excitation energy :  0.35107849     au
@                       9.5533316     eV;   77052.820     cm-1;   921.75642     kJ / mol

@ Total energy :       -15.418247     au

@ Operator label: XDIPLEN ; Transition moment : -6.82877108E-18 au
@ Oscillator strength (LENGTH)   :  1.09143548E-35  (X-polarization)

@ Operator label: YDIPLEN ; Transition moment :   1.4583015     au
@ Oscillator strength (LENGTH)   :  0.49774577      (Y-polarization)

@ Operator label: ZDIPLEN ; Transition moment :  3.01475259E-02 au
@ Oscillator strength (LENGTH)   :  2.12723912E-04  (Z-polarization)
@ Total oscillator strength (LENGTH)   :  0.49795849    

 Eigenvector for state no.  3

      Index(conf)                         Z operator          Y operator
      ----------                      --------------      --------------
          10                            0.1107538628        0.0000000000
          11                           -0.9937690251        0.0000000000

       18 elements with absolute value ≤ 1.00D-01 are not printed.

 Printout of coefficients in interval  3.1623E-01 to  1.0000E+00
 ===============================================================

  Coefficient of CSF no.        11 is     -0.99376903   -9.93769025E-01
  Orbital          2   1   4
  Spin coupling    2   1  -1

 Printout of coefficients in interval  1.0000E-01 to  3.1623E-01
 ===============================================================

  Coefficient of CSF no.        10 is      0.11075386    1.10753863E-01
  Orbital          2   1   3
  Spin coupling    2   1  -1

 Norm of printed CI vector ..      0.99984329

 Magnitude of CI coefficients
 ============================
 ( Ranges are relative to norm of vector :  1.00E+00 )

  10- 1 to 10- 0         2    0.99984329E+00      0.9998432933
  10- 2 to 10- 1         1    0.15478416E-03      0.9999980775
  10- 3 to 10- 2         1    0.19225310E-05      1.0000000000
  Number of coefficients less than 10^-11 times norm is           16


 @ Excited state no:    4 in symmetry 1  ( A  ) - singlet excitation
 -------------------------------------------------------------------

@ Excitation energy :  0.35107849     au
@                       9.5533316     eV;   77052.820     cm-1;   921.75642     kJ / mol

@ Total energy :       -15.418247     au

@ Operator label: XDIPLEN ; Transition moment : -1.25233422E-16 au
@ Oscillator strength (LENGTH)   :  3.67073858E-33  (X-polarization)

@ Operator label: YDIPLEN ; Transition moment : -0.11373488     au
@ Oscillator strength (LENGTH)   :  3.02761269E-03  (Y-polarization)

@ Operator label: ZDIPLEN ; Transition moment :  -1.4541721     au
@ Oscillator strength (LENGTH)   :  0.49493088      (Z-polarization)
@ Total oscillator strength (LENGTH)   :  0.49795849    

 Eigenvector for state no.  4

      Index(conf)                         Z operator          Y operator
      ----------                      --------------      --------------
          10                           -0.9998464197        0.0000000000

       19 elements with absolute value ≤ 1.00D-01 are not printed.

 Printout of coefficients in interval  3.1623E-01 to  1.0000E+00
 ===============================================================

  Coefficient of CSF no.        10 is     -0.99984642   -9.99846420E-01
  Orbital          2   1   3
  Spin coupling    2   1  -1

 Printout of coefficients in interval  1.0000E-01 to  3.1623E-01
 ===============================================================
   ( no coefficients )

 Norm of printed CI vector ..      0.99969286

 Magnitude of CI coefficients
 ============================
 ( Ranges are relative to norm of vector :  1.00E+00 )

  10- 1 to 10- 0         1    0.99969286E+00      0.9996928630
  10- 2 to 10- 1         2    0.30711346E-03      0.9999999764
  10- 4 to 10- 3         1    0.23577137E-07      1.0000000000
  Number of coefficients less than 10^-11 times norm is           16


 @ Excited state no:    5 in symmetry 1  ( A  ) - singlet excitation
 -------------------------------------------------------------------

@ Excitation energy :  0.54352374     au
@                       14.790033     eV;   119289.67     cm-1;   1427.0214     kJ / mol

@ Total energy :       -15.225802     au

@ Operator label: XDIPLEN ; Transition moment :  7.40370966E-17 au
@ Oscillator strength (LENGTH)   :  1.98621392E-33  (X-polarization)

@ Operator label: YDIPLEN ; Transition moment : -5.81105597E-17 au
@ Oscillator strength (LENGTH)   :  1.22359411E-33  (Y-polarization)

@ Operator label: ZDIPLEN ; Transition moment :  1.03488906E-15 au
@ Oscillator strength (LENGTH)   :  3.88074272E-31  (Z-polarization)
@ Total oscillator strength (LENGTH)   :  3.91284080E-31

 Eigenvector for state no.  5

      Index(conf)                         Z operator          Y operator
      ----------                      --------------      --------------
           2                           -0.3625661437        0.0000000000
           3                            0.2957990921        0.0000000000
           4                            0.3625661437        0.0000000000
           5                           -0.2957990921        0.0000000000
           9                           -0.5809239094        0.0000000000
          12                            0.4739459765        0.0000000000

       14 elements with absolute value ≤ 1.00D-01 are not printed.

 Printout of coefficients in interval  3.1623E-01 to  1.0000E+00
 ===============================================================

  Coefficient of CSF no.         2 is     -0.36256614   -3.62566144E-01
  Orbital          1   3
  Spin coupling    2   2

  Coefficient of CSF no.         4 is      0.36256614    3.62566144E-01
  Orbital          1   4
  Spin coupling    2   2

  Coefficient of CSF no.         9 is     -0.58092391   -5.80923909E-01
  Orbital          1   3   4
  Spin coupling    2   1  -1

  Coefficient of CSF no.        12 is      0.47394598    4.73945976E-01
  Orbital          2   3   4
  Spin coupling    2   1  -1

 Printout of coefficients in interval  1.0000E-01 to  3.1623E-01
 ===============================================================

  Coefficient of CSF no.         3 is      0.29579909    2.95799092E-01
  Orbital          2   3
  Spin coupling    2   2

  Coefficient of CSF no.         5 is     -0.29579909   -2.95799092E-01
  Orbital          2   4
  Spin coupling    2   2

 Norm of printed CI vector ..      1.00000000

 Magnitude of CI coefficients
 ============================
 ( Ranges are relative to norm of vector :  1.00E+00 )

  10- 1 to 10- 0         6    0.10000000E+01      1.0000000000
  Number of coefficients less than 10^-11 times norm is           14


 @ Excited state no:    6 in symmetry 1  ( A  ) - singlet excitation
 -------------------------------------------------------------------

@ Excitation energy :  0.54352374     au
@                       14.790033     eV;   119289.67     cm-1;   1427.0214     kJ / mol

@ Total energy :       -15.225802     au

@ Operator label: XDIPLEN ; Transition moment :  4.64746428E-17 au
@ Oscillator strength (LENGTH)   :  7.82635211E-34  (X-polarization)

@ Operator label: YDIPLEN ; Transition moment :  1.71516826E-17 au
@ Oscillator strength (LENGTH)   :  1.06595955E-34  (Y-polarization)

@ Operator label: ZDIPLEN ; Transition moment : -4.13743075E-16 au
@ Oscillator strength (LENGTH)   :  6.20281369E-32  (Z-polarization)
@ Total oscillator strength (LENGTH)   :  6.29173681E-32

 Eigenvector for state no.  6

      Index(conf)                         Z operator          Y operator
      ----------                      --------------      --------------
           2                           -0.3691876861        0.0000000000
           3                            0.3012012684        0.0000000000
           4                            0.3691876861        0.0000000000
           5                           -0.3012012684        0.0000000000
           9                            0.5725224105        0.0000000000
          12                           -0.4670916251        0.0000000000

       14 elements with absolute value ≤ 1.00D-01 are not printed.

 Printout of coefficients in interval  3.1623E-01 to  1.0000E+00
 ===============================================================

  Coefficient of CSF no.         2 is     -0.36918769   -3.69187686E-01
  Orbital          1   3
  Spin coupling    2   2

  Coefficient of CSF no.         4 is      0.36918769    3.69187686E-01
  Orbital          1   4
  Spin coupling    2   2

  Coefficient of CSF no.         9 is      0.57252241    5.72522410E-01
  Orbital          1   3   4
  Spin coupling    2   1  -1

  Coefficient of CSF no.        12 is     -0.46709163   -4.67091625E-01
  Orbital          2   3   4
  Spin coupling    2   1  -1

 Printout of coefficients in interval  1.0000E-01 to  3.1623E-01
 ===============================================================

  Coefficient of CSF no.         3 is      0.30120127    3.01201268E-01
  Orbital          2   3
  Spin coupling    2   2

  Coefficient of CSF no.         5 is     -0.30120127   -3.01201268E-01
  Orbital          2   4
  Spin coupling    2   2

 Norm of printed CI vector ..      1.00000000

 Magnitude of CI coefficients
 ============================
 ( Ranges are relative to norm of vector :  1.00E+00 )

  10- 1 to 10- 0         6    0.10000000E+01      1.0000000000
  Number of coefficients less than 10^-11 times norm is           14


 @ Excited state no:    7 in symmetry 1  ( A  ) - singlet excitation
 -------------------------------------------------------------------

@ Excitation energy :  0.57126478     au
@                       15.544905     eV;   125378.13     cm-1;   1499.8555     kJ / mol

@ Total energy :       -15.198061     au

@ Operator label: XDIPLEN ; Transition moment : -9.22143995E-16 au
@ Oscillator strength (LENGTH)   :  3.23849832E-31  (X-polarization)

@ Operator label: YDIPLEN ; Transition moment : -2.64316837E-16 au
@ Oscillator strength (LENGTH)   :  2.66069963E-32  (Y-polarization)

@ Operator label: ZDIPLEN ; Transition moment : -3.15732594E-16 au
@ Oscillator strength (LENGTH)   :  3.79651419E-32  (Z-polarization)
@ Total oscillator strength (LENGTH)   :  3.88421971E-31

 Eigenvector for state no.  7

      Index(conf)                         Z operator          Y operator
      ----------                      --------------      --------------
           2                           -0.5499036111        0.0000000000
           3                            0.4439129070        0.0000000000
           4                           -0.5499036111        0.0000000000
           5                            0.4439129070        0.0000000000

       16 elements with absolute value ≤ 1.00D-01 are not printed.

 Printout of coefficients in interval  3.1623E-01 to  1.0000E+00
 ===============================================================

  Coefficient of CSF no.         2 is     -0.54990361   -5.49903611E-01
  Orbital          1   3
  Spin coupling    2   2

  Coefficient of CSF no.         3 is      0.44391291    4.43912907E-01
  Orbital          2   3
  Spin coupling    2   2

  Coefficient of CSF no.         4 is     -0.54990361   -5.49903611E-01
  Orbital          1   4
  Spin coupling    2   2

  Coefficient of CSF no.         5 is      0.44391291    4.43912907E-01
  Orbital          2   4
  Spin coupling    2   2

 Printout of coefficients in interval  1.0000E-01 to  3.1623E-01
 ===============================================================
   ( no coefficients )

 Norm of printed CI vector ..      0.99890530

 Magnitude of CI coefficients
 ============================
 ( Ranges are relative to norm of vector :  1.00E+00 )

  10- 1 to 10- 0         4    0.99890530E+00      0.9989053010
  10- 2 to 10- 1         2    0.10946990E-02      1.0000000000
  Number of coefficients less than 10^-11 times norm is           14


 @ Excited state no:    8 in symmetry 1  ( A  ) - singlet excitation
 -------------------------------------------------------------------

@ Excitation energy :  0.58941589     au
@                       16.038822     eV;   129361.83     cm-1;   1547.5112     kJ / mol

@ Total energy :       -15.179910     au

@ Operator label: XDIPLEN ; Transition moment :  1.11061637E-17 au
@ Oscillator strength (LENGTH)   :  4.84684036E-35  (X-polarization)

@ Operator label: YDIPLEN ; Transition moment : -5.06322651E-17 au
@ Oscillator strength (LENGTH)   :  1.00736137E-33  (Y-polarization)

@ Operator label: ZDIPLEN ; Transition moment :  3.05640857E-16 au
@ Oscillator strength (LENGTH)   :  3.67073806E-32  (Z-polarization)
@ Total oscillator strength (LENGTH)   :  3.77632104E-32

 Eigenvector for state no.  8

      Index(conf)                         Z operator          Y operator
      ----------                      --------------      --------------
          19                           -1.0000000000        0.0000000000

       19 elements with absolute value ≤ 1.00D-01 are not printed.

 Printout of coefficients in interval  3.1623E-01 to  1.0000E+00
 ===============================================================

  Coefficient of CSF no.        19 is     -1.00000000   -1.00000000E+00
  Orbital          1   2   3   4
  Spin coupling    1   1  -1  -1

 Printout of coefficients in interval  1.0000E-01 to  3.1623E-01
 ===============================================================
   ( no coefficients )

 Norm of printed CI vector ..      1.00000000

 Magnitude of CI coefficients
 ============================
 ( Ranges are relative to norm of vector :  1.00E+00 )

  10- 1 to 10- 0         1    0.10000000E+01      1.0000000000
  Number of coefficients less than 10^-11 times norm is           19


 @ Excited state no:    9 in symmetry 1  ( A  ) - singlet excitation
 -------------------------------------------------------------------

@ Excitation energy :  0.86905166     au
@                       23.648099     eV;   190734.79     cm-1;   2281.6948     kJ / mol

@ Total energy :       -14.900274     au

@ Operator label: XDIPLEN ; Transition moment : -4.99600361E-16 au
@ Oscillator strength (LENGTH)   :  1.44610497E-31  (X-polarization)

@ Operator label: YDIPLEN ; Transition moment :  1.75293606E-17 au
@ Oscillator strength (LENGTH)   :  1.78027249E-34  (Y-polarization)

@ Operator label: ZDIPLEN ; Transition moment :  1.47376554E-16 au
@ Oscillator strength (LENGTH)   :  1.25837803E-32  (Z-polarization)
@ Total oscillator strength (LENGTH)   :  1.57372305E-31

 Eigenvector for state no.  9

      Index(conf)                         Z operator          Y operator
      ----------                      --------------      --------------
          13                            0.7069267300        0.0000000000
          16                           -0.7069267300        0.0000000000

       18 elements with absolute value ≤ 1.00D-01 are not printed.

 Printout of coefficients in interval  3.1623E-01 to  1.0000E+00
 ===============================================================

  Coefficient of CSF no.        13 is      0.70692673    7.06926730E-01
  Orbital          3   1   2
  Spin coupling    2   1  -1

  Coefficient of CSF no.        16 is     -0.70692673   -7.06926730E-01
  Orbital          4   1   2
  Spin coupling    2   1  -1

 Printout of coefficients in interval  1.0000E-01 to  3.1623E-01
 ===============================================================
   ( no coefficients )

 Norm of printed CI vector ..      0.99949080

 Magnitude of CI coefficients
 ============================
 ( Ranges are relative to norm of vector :  1.00E+00 )

  10- 1 to 10- 0         2    0.99949080E+00      0.9994908030
  10- 2 to 10- 1         1    0.50919695E-03      1.0000000000
  Number of coefficients less than 10^-11 times norm is           17


 @ Excited state no:   10 in symmetry 1  ( A  ) - singlet excitation
 -------------------------------------------------------------------

@ Excitation energy :  0.86905166     au
@                       23.648099     eV;   190734.79     cm-1;   2281.6948     kJ / mol

@ Total energy :       -14.900274     au

@ Operator label: XDIPLEN ; Transition moment : -9.02056208E-17 au
@ Oscillator strength (LENGTH)   :  4.71434685E-33  (X-polarization)

@ Operator label: YDIPLEN ; Transition moment : -9.53533597E-17 au
@ Oscillator strength (LENGTH)   :  5.26776427E-33  (Y-polarization)

@ Operator label: ZDIPLEN ; Transition moment : -8.12341355E-17 au
@ Oscillator strength (LENGTH)   :  3.82323910E-33  (Z-polarization)
@ Total oscillator strength (LENGTH)   :  1.38053502E-32

 Eigenvector for state no. 10

      Index(conf)                         Z operator          Y operator
      ----------                      --------------      --------------
          13                           -0.4363912501        0.0000000000
          16                            0.4363912501        0.0000000000
          20                           -0.7868451904        0.0000000000

       17 elements with absolute value ≤ 1.00D-01 are not printed.

 Printout of coefficients in interval  3.1623E-01 to  1.0000E+00
 ===============================================================

  Coefficient of CSF no.        13 is     -0.43639125   -4.36391250E-01
  Orbital          3   1   2
  Spin coupling    2   1  -1

  Coefficient of CSF no.        16 is      0.43639125    4.36391250E-01
  Orbital          4   1   2
  Spin coupling    2   1  -1

  Coefficient of CSF no.        20 is     -0.78684519   -7.86845190E-01
  Orbital          1   2   3   4
  Spin coupling    1  -1   1  -1

 Printout of coefficients in interval  1.0000E-01 to  3.1623E-01
 ===============================================================
   ( no coefficients )

 Norm of printed CI vector ..      1.00000000

 Magnitude of CI coefficients
 ============================
 ( Ranges are relative to norm of vector :  1.00E+00 )

  10- 1 to 10- 0         3    0.10000000E+01      1.0000000000
  Number of coefficients less than 10^-11 times norm is           17


 @ Excited state no:   11 in symmetry 1  ( A  ) - singlet excitation
 -------------------------------------------------------------------

@ Excitation energy :  0.87595448     au
@                       23.835934     eV;   192249.79     cm-1;   2299.8181     kJ / mol

@ Total energy :       -14.893371     au

@ Operator label: XDIPLEN ; Transition moment :  1.52666754E-15 au
@ Oscillator strength (LENGTH)   :  1.36106611E-30  (X-polarization)

@ Operator label: YDIPLEN ; Transition moment :  7.55446199E-17 au
@ Oscillator strength (LENGTH)   :  3.33270875E-33  (Y-polarization)

@ Operator label: ZDIPLEN ; Transition moment :  1.41742913E-16 au
@ Oscillator strength (LENGTH)   :  1.17325655E-32  (Z-polarization)
@ Total oscillator strength (LENGTH)   :  1.37613139E-30

 Eigenvector for state no. 11

      Index(conf)                         Z operator          Y operator
      ----------                      --------------      --------------
           2                            0.2276738104        0.0000000000
           3                            0.2790637891        0.0000000000
           4                           -0.2276738104        0.0000000000
           5                           -0.2790637891        0.0000000000
           9                            0.5440112743        0.0000000000
          12                            0.6668041758        0.0000000000

       14 elements with absolute value ≤ 1.00D-01 are not printed.

 Printout of coefficients in interval  3.1623E-01 to  1.0000E+00
 ===============================================================

  Coefficient of CSF no.         9 is      0.54401127    5.44011274E-01
  Orbital          1   3   4
  Spin coupling    2   1  -1

  Coefficient of CSF no.        12 is      0.66680418    6.66804176E-01
  Orbital          2   3   4
  Spin coupling    2   1  -1

 Printout of coefficients in interval  1.0000E-01 to  3.1623E-01
 ===============================================================

  Coefficient of CSF no.         2 is      0.22767381    2.27673810E-01
  Orbital          1   3
  Spin coupling    2   2

  Coefficient of CSF no.         3 is      0.27906379    2.79063789E-01
  Orbital          2   3
  Spin coupling    2   2

  Coefficient of CSF no.         4 is     -0.22767381   -2.27673810E-01
  Orbital          1   4
  Spin coupling    2   2

  Coefficient of CSF no.         5 is     -0.27906379   -2.79063789E-01
  Orbital          2   4
  Spin coupling    2   2

 Norm of printed CI vector ..      1.00000000

 Magnitude of CI coefficients
 ============================
 ( Ranges are relative to norm of vector :  1.00E+00 )

  10- 1 to 10- 0         6    0.10000000E+01      1.0000000000
  Number of coefficients less than 10^-11 times norm is           14


 @ Excited state no:   12 in symmetry 1  ( A  ) - singlet excitation
 -------------------------------------------------------------------

@ Excitation energy :  0.87595448     au
@                       23.835934     eV;   192249.79     cm-1;   2299.8181     kJ / mol

@ Total energy :       -14.893371     au

@ Operator label: XDIPLEN ; Transition moment :  2.10512771E-16 au
@ Oscillator strength (LENGTH)   :  2.58789812E-32  (X-polarization)

@ Operator label: YDIPLEN ; Transition moment :  9.20163547E-17 au
@ Oscillator strength (LENGTH)   :  4.94447663E-33  (Y-polarization)

@ Operator label: ZDIPLEN ; Transition moment : -4.21486248E-17 au
@ Oscillator strength (LENGTH)   :  1.03742593E-33  (Z-polarization)
@ Total oscillator strength (LENGTH)   :  3.18608838E-32

 Eigenvector for state no. 12

      Index(conf)                         Z operator          Y operator
      ----------                      --------------      --------------
           2                            0.4013085223        0.0000000000
           3                            0.4918909057        0.0000000000
           4                           -0.4013085223        0.0000000000
           5                           -0.4918909057        0.0000000000
           9                           -0.2784276106        0.0000000000
          12                           -0.3412736135        0.0000000000

       14 elements with absolute value ≤ 1.00D-01 are not printed.

 Printout of coefficients in interval  3.1623E-01 to  1.0000E+00
 ===============================================================

  Coefficient of CSF no.         2 is      0.40130852    4.01308522E-01
  Orbital          1   3
  Spin coupling    2   2

  Coefficient of CSF no.         3 is      0.49189091    4.91890906E-01
  Orbital          2   3
  Spin coupling    2   2

  Coefficient of CSF no.         4 is     -0.40130852   -4.01308522E-01
  Orbital          1   4
  Spin coupling    2   2

  Coefficient of CSF no.         5 is     -0.49189091   -4.91890906E-01
  Orbital          2   4
  Spin coupling    2   2

  Coefficient of CSF no.        12 is     -0.34127361   -3.41273614E-01
  Orbital          2   3   4
  Spin coupling    2   1  -1

 Printout of coefficients in interval  1.0000E-01 to  3.1623E-01
 ===============================================================

  Coefficient of CSF no.         9 is     -0.27842761   -2.78427611E-01
  Orbital          1   3   4
  Spin coupling    2   1  -1

 Norm of printed CI vector ..      1.00000000

 Magnitude of CI coefficients
 ============================
 ( Ranges are relative to norm of vector :  1.00E+00 )

  10- 1 to 10- 0         6    0.10000000E+01      1.0000000000
  Number of coefficients less than 10^-11 times norm is           14


 @ Excited state no:   13 in symmetry 1  ( A  ) - singlet excitation
 -------------------------------------------------------------------

@ Excitation energy :  0.89691560     au
@                       24.406315     eV;   196850.22     cm-1;   2354.8515     kJ / mol

@ Total energy :       -14.872410     au

@ Operator label: XDIPLEN ; Transition moment : -0.16387612     au
@ Oscillator strength (LENGTH)   :  1.60580078E-02  (X-polarization)

@ Operator label: YDIPLEN ; Transition moment : -3.85129746E-16 au
@ Oscillator strength (LENGTH)   :  8.86899571E-32  (Y-polarization)

@ Operator label: ZDIPLEN ; Transition moment : -3.79888779E-16 au
@ Oscillator strength (LENGTH)   :  8.62925396E-32  (Z-polarization)
@ Total oscillator strength (LENGTH)   :  1.60580078E-02

 Eigenvector for state no. 13

      Index(conf)                         Z operator          Y operator
      ----------                      --------------      --------------
          13                           -0.7071067812        0.0000000000
          16                           -0.7071067812        0.0000000000

       18 elements with absolute value ≤ 1.00D-01 are not printed.

 Printout of coefficients in interval  3.1623E-01 to  1.0000E+00
 ===============================================================

  Coefficient of CSF no.        13 is     -0.70710678   -7.07106781E-01
  Orbital          3   1   2
  Spin coupling    2   1  -1

  Coefficient of CSF no.        16 is     -0.70710678   -7.07106781E-01
  Orbital          4   1   2
  Spin coupling    2   1  -1

 Printout of coefficients in interval  1.0000E-01 to  3.1623E-01
 ===============================================================
   ( no coefficients )

 Norm of printed CI vector ..      1.00000000

 Magnitude of CI coefficients
 ============================
 ( Ranges are relative to norm of vector :  1.00E+00 )

  10- 1 to 10- 0         2    0.10000000E+01      1.0000000000
  Number of coefficients less than 10^-11 times norm is           18


 @ Excited state no:   14 in symmetry 1  ( A  ) - singlet excitation
 -------------------------------------------------------------------

@ Excitation energy :  0.90365198     au
@                       24.589621     eV;   198328.68     cm-1;   2372.5379     kJ / mol

@ Total energy :       -14.865674     au

@ Operator label: XDIPLEN ; Transition moment : -1.30880343E-14 au
@ Oscillator strength (LENGTH)   :  1.03195033E-28  (X-polarization)

@ Operator label: YDIPLEN ; Transition moment :  3.27850826E-17 au
@ Oscillator strength (LENGTH)   :  6.47533902E-34  (Y-polarization)

@ Operator label: ZDIPLEN ; Transition moment : -1.42083351E-17 au
@ Oscillator strength (LENGTH)   :  1.21617572E-34  (Z-polarization)
@ Total oscillator strength (LENGTH)   :  1.03195802E-28

 Eigenvector for state no. 14

      Index(conf)                         Z operator          Y operator
      ----------                      --------------      --------------
           2                           -0.4431030400        0.0000000000
           3                           -0.5489915752        0.0000000000
           4                           -0.4431030400        0.0000000000
           5                           -0.5489915752        0.0000000000

       16 elements with absolute value ≤ 1.00D-01 are not printed.

 Printout of coefficients in interval  3.1623E-01 to  1.0000E+00
 ===============================================================

  Coefficient of CSF no.         2 is     -0.44310304   -4.43103040E-01
  Orbital          1   3
  Spin coupling    2   2

  Coefficient of CSF no.         3 is     -0.54899158   -5.48991575E-01
  Orbital          2   3
  Spin coupling    2   2

  Coefficient of CSF no.         4 is     -0.44310304   -4.43103040E-01
  Orbital          1   4
  Spin coupling    2   2

  Coefficient of CSF no.         5 is     -0.54899158   -5.48991575E-01
  Orbital          2   4
  Spin coupling    2   2

 Printout of coefficients in interval  1.0000E-01 to  3.1623E-01
 ===============================================================
   ( no coefficients )

 Norm of printed CI vector ..      0.99546411

 Magnitude of CI coefficients
 ============================
 ( Ranges are relative to norm of vector :  1.00E+00 )

  10- 1 to 10- 0         4    0.99546411E+00      0.9954641074
  10- 2 to 10- 1         2    0.45358926E-02      1.0000000000
  Number of coefficients less than 10^-11 times norm is           14


 @ Excited state no:   15 in symmetry 1  ( A  ) - singlet excitation
 -------------------------------------------------------------------

@ Excitation energy :   1.0976095     au
@                       29.867475     eV;   240897.45     cm-1;   2881.7734     kJ / mol

@ Total energy :       -14.671716     au

@ Operator label: XDIPLEN ; Transition moment :  1.93543320E-17 au
@ Oscillator strength (LENGTH)   :  2.74102494E-34  (X-polarization)

@ Operator label: YDIPLEN ; Transition moment : -2.31825077E-15 au
@ Oscillator strength (LENGTH)   :  3.93257887E-30  (Y-polarization)

@ Operator label: ZDIPLEN ; Transition moment :  9.86797385E-16 au
@ Oscillator strength (LENGTH)   :  7.12545487E-31  (Z-polarization)
@ Total oscillator strength (LENGTH)   :  4.64539846E-30

 Eigenvector for state no. 15

      Index(conf)                         Z operator          Y operator
      ----------                      --------------      --------------
          15                           -0.9933281665        0.0000000000
          18                           -0.1103170142        0.0000000000

       18 elements with absolute value ≤ 1.00D-01 are not printed.

 Printout of coefficients in interval  3.1623E-01 to  1.0000E+00
 ===============================================================

  Coefficient of CSF no.        15 is     -0.99332817   -9.93328166E-01
  Orbital          3   2   4
  Spin coupling    2   1  -1

 Printout of coefficients in interval  1.0000E-01 to  3.1623E-01
 ===============================================================

  Coefficient of CSF no.        18 is     -0.11031701   -1.10317014E-01
  Orbital          4   2   3
  Spin coupling    2   1  -1

 Norm of printed CI vector ..      0.99887069

 Magnitude of CI coefficients
 ============================
 ( Ranges are relative to norm of vector :  1.00E+00 )

  10- 1 to 10- 0         2    0.99887069E+00      0.9988706899
  10- 2 to 10- 1         1    0.11155510E-02      0.9999862409
  10- 3 to 10- 2         1    0.13759065E-04      1.0000000000
  Number of coefficients less than 10^-11 times norm is           16

@ Singlet transition operator label: XDIPLEN 
@ STATE NO:   16 *TRANSITION MOMENT: -2.99144592E-17 *ENERGY(eV):   29.867475    
@ STATE NO:   17 *TRANSITION MOMENT:  3.00896125E-17 *ENERGY(eV):   30.004293    
@ STATE NO:   18 *TRANSITION MOMENT:  4.85306891E-16 *ENERGY(eV):   30.004293    
@ STATE NO:   19 *TRANSITION MOMENT: -2.71935757E-17 *ENERGY(eV):   42.822239    

@ Singlet transition operator label: YDIPLEN 
@ STATE NO:   16 *TRANSITION MOMENT:  8.68577393E-16 *ENERGY(eV):   29.867475    
@ STATE NO:   17 *TRANSITION MOMENT:  1.81887892E-04 *ENERGY(eV):   30.004293    
@ STATE NO:   18 *TRANSITION MOMENT:  1.10353832E-02 *ENERGY(eV):   30.004293    
@ STATE NO:   19 *TRANSITION MOMENT:  2.26400753E-16 *ENERGY(eV):   42.822239    

@ Singlet transition operator label: ZDIPLEN 
@ STATE NO:   16 *TRANSITION MOMENT: -2.72354040E-16 *ENERGY(eV):   29.867475    
@ STATE NO:   17 *TRANSITION MOMENT: -1.10339930E-02 *ENERGY(eV):   30.004293    
@ STATE NO:   18 *TRANSITION MOMENT: -4.90149915E-05 *ENERGY(eV):   30.004293    
@ STATE NO:   19 *TRANSITION MOMENT:  4.84951424E-17 *ENERGY(eV):   42.822239    


 **************************************************************************************
 *** @ Excit. operator sym 1 & ref. state sym 1 => excited state symmetry 1  ( A  ) ***
 **************************************************************************************



 @ Excited state no:   16 in symmetry 1  ( A  ) - singlet excitation
 -------------------------------------------------------------------

@ Excitation energy :   1.0976095     au
@                       29.867475     eV;   240897.45     cm-1;   2881.7734     kJ / mol

@ Total energy :       -14.671716     au

@ Operator label: XDIPLEN ; Transition moment : -2.99144592E-17 au
@ Oscillator strength (LENGTH)   :  6.54815463E-34  (X-polarization)

@ Operator label: YDIPLEN ; Transition moment :  8.68577393E-16 au
@ Oscillator strength (LENGTH)   :  5.52043953E-31  (Y-polarization)

@ Operator label: ZDIPLEN ; Transition moment : -2.72354040E-16 au
@ Oscillator strength (LENGTH)   :  5.42780528E-32  (Z-polarization)
@ Total oscillator strength (LENGTH)   :  6.06976822E-31

 Eigenvector for state no. 16

      Index(conf)                         Z operator          Y operator
      ----------                      --------------      --------------
          15                            0.1615612035        0.0000000000
          18                           -0.9862903566        0.0000000000

       18 elements with absolute value ≤ 1.00D-01 are not printed.

 Printout of coefficients in interval  3.1623E-01 to  1.0000E+00
 ===============================================================

  Coefficient of CSF no.        18 is     -0.98629036   -9.86290357E-01
  Orbital          4   2   3
  Spin coupling    2   1  -1

 Printout of coefficients in interval  1.0000E-01 to  3.1623E-01
 ===============================================================

  Coefficient of CSF no.        15 is      0.16156120    1.61561204E-01
  Orbital          3   2   4
  Spin coupling    2   1  -1

 Norm of printed CI vector ..      0.99887069

 Magnitude of CI coefficients
 ============================
 ( Ranges are relative to norm of vector :  1.00E+00 )

  10- 1 to 10- 0         2    0.99887069E+00      0.9988706899
  10- 2 to 10- 1         1    0.10997995E-02      0.9999704894
  10- 3 to 10- 2         1    0.29510604E-04      1.0000000000
  Number of coefficients less than 10^-11 times norm is           16


 @ Excited state no:   17 in symmetry 1  ( A  ) - singlet excitation
 -------------------------------------------------------------------

@ Excitation energy :   1.1026375     au
@                       30.004293     eV;   242000.96     cm-1;   2894.9744     kJ / mol

@ Total energy :       -14.666688     au

@ Operator label: XDIPLEN ; Transition moment :  3.00896125E-17 au
@ Oscillator strength (LENGTH)   :  6.65540824E-34  (X-polarization)

@ Operator label: YDIPLEN ; Transition moment :  1.81887892E-04 au
@ Oscillator strength (LENGTH)   :  2.43191891E-08  (Y-polarization)

@ Operator label: ZDIPLEN ; Transition moment : -1.10339930E-02 au
@ Oscillator strength (LENGTH)   :  8.94966796E-05  (Z-polarization)
@ Total oscillator strength (LENGTH)   :  8.95209988E-05

 Eigenvector for state no. 17

      Index(conf)                         Z operator          Y operator
      ----------                      --------------      --------------
          14                           -0.1065917270        0.0000000000
          17                           -0.9942240678        0.0000000000

       18 elements with absolute value ≤ 1.00D-01 are not printed.

 Printout of coefficients in interval  3.1623E-01 to  1.0000E+00
 ===============================================================

  Coefficient of CSF no.        17 is     -0.99422407   -9.94224068E-01
  Orbital          4   1   3
  Spin coupling    2   1  -1

 Printout of coefficients in interval  1.0000E-01 to  3.1623E-01
 ===============================================================

  Coefficient of CSF no.        14 is     -0.10659173   -1.06591727E-01
  Orbital          3   1   4
  Spin coupling    2   1  -1

 Norm of printed CI vector ..      0.99984329

 Magnitude of CI coefficients
 ============================
 ( Ranges are relative to norm of vector :  1.00E+00 )

  10- 1 to 10- 0         2    0.99984329E+00      0.9998432933
  10- 2 to 10- 1         1    0.15492594E-03      0.9999982193
  10- 3 to 10- 2         1    0.17807485E-05      1.0000000000
  Number of coefficients less than 10^-11 times norm is           16


 @ Excited state no:   18 in symmetry 1  ( A  ) - singlet excitation
 -------------------------------------------------------------------

@ Excitation energy :   1.1026375     au
@                       30.004293     eV;   242000.96     cm-1;   2894.9744     kJ / mol

@ Total energy :       -14.666688     au

@ Operator label: XDIPLEN ; Transition moment :  4.85306891E-16 au
@ Oscillator strength (LENGTH)   :  1.73130836E-31  (X-polarization)

@ Operator label: YDIPLEN ; Transition moment :  1.10353832E-02 au
@ Oscillator strength (LENGTH)   :  8.95192327E-05  (Y-polarization)

@ Operator label: ZDIPLEN ; Transition moment : -4.90149915E-05 au
@ Oscillator strength (LENGTH)   :  1.76603528E-09  (Z-polarization)
@ Total oscillator strength (LENGTH)   :  8.95209988E-05

 Eigenvector for state no. 18

      Index(conf)                         Z operator          Y operator
      ----------                      --------------      --------------
          14                           -0.9962366319        0.0000000000

       19 elements with absolute value ≤ 1.00D-01 are not printed.

 Printout of coefficients in interval  3.1623E-01 to  1.0000E+00
 ===============================================================

  Coefficient of CSF no.        14 is     -0.99623663   -9.96236632E-01
  Orbital          3   1   4
  Spin coupling    2   1  -1

 Printout of coefficients in interval  1.0000E-01 to  3.1623E-01
 ===============================================================
   ( no coefficients )

 Norm of printed CI vector ..      0.99248743

 Magnitude of CI coefficients
 ============================
 ( Ranges are relative to norm of vector :  1.00E+00 )

  10- 1 to 10- 0         1    0.99248743E+00      0.9924874268
  10- 2 to 10- 1         2    0.75114203E-02      0.9999988471
  10- 3 to 10- 2         1    0.11528941E-05      1.0000000000
  Number of coefficients less than 10^-11 times norm is           16


 @ Excited state no:   19 in symmetry 1  ( A  ) - singlet excitation
 -------------------------------------------------------------------

@ Excitation energy :   1.5736884     au
@                       42.822239     eV;   345384.67     cm-1;   4131.7182     kJ / mol

@ Total energy :       -14.195637     au

@ Operator label: XDIPLEN ; Transition moment : -2.71935757E-17 au
@ Oscillator strength (LENGTH)   :  7.75818468E-34  (X-polarization)

@ Operator label: YDIPLEN ; Transition moment :  2.26400753E-16 au
@ Oscillator strength (LENGTH)   :  5.37753461E-32  (Y-polarization)

@ Operator label: ZDIPLEN ; Transition moment :  4.84951424E-17 au
@ Oscillator strength (LENGTH)   :  2.46731136E-33  (Z-polarization)
@ Total oscillator strength (LENGTH)   :  5.70184759E-32

 Eigenvector for state no. 19

      Index(conf)                         Z operator          Y operator
      ----------                      --------------      --------------
           6                            0.9984052042        0.0000000000

       19 elements with absolute value ≤ 1.00D-01 are not printed.

 Printout of coefficients in interval  3.1623E-01 to  1.0000E+00
 ===============================================================

  Coefficient of CSF no.         6 is      0.99840520    9.98405204E-01
  Orbital          3   4
  Spin coupling    2   2

 Printout of coefficients in interval  1.0000E-01 to  3.1623E-01
 ===============================================================
   ( no coefficients )

 Norm of printed CI vector ..      0.99681295

 Magnitude of CI coefficients
 ============================
 ( Ranges are relative to norm of vector :  1.00E+00 )

  10- 1 to 10- 0         1    0.99681295E+00      0.9968129518
  10- 2 to 10- 1         4    0.31858768E-02      0.9999988286
  10- 3 to 10- 2         1    0.11714194E-05      1.0000000000
  Number of coefficients less than 10^-11 times norm is           14


 Time used in polarization propagator calculation is      0.02 CPU seconds for symmetry 1

  Total CPU  time used in RESPONSE:   0.04 seconds
  Total wall time used in RESPONSE:   0.14 seconds


                   .-------------------------------------------.
                   | End of Dynamic Property Section (RESPONS) |
                   `-------------------------------------------'

  Total CPU  time used in DALTON:   0.22 seconds
  Total wall time used in DALTON:   1.22 seconds

 NOTE:    1 warnings have been issued.
 Check output, result, and error files for "WARNING".

 
     Date and time (Linux)  : Tue Jul  7 17:01:30 2026
     Host name              : n-62-31-23                              
