

     ************************************************************************
     *************** Dalton - An Electronic Structure Program ***************
     ************************************************************************

    This is output from DALTON release Dalton2024.0-dev (2024)
         ( Web site: http://daltonprogram.org )

   ----------------------------------------------------------------------------

    NOTE:
     
    Dalton is an experimental code for the evaluation of molecular
    properties using (MC)SCF, DFT, CI, and CC wave functions.
    The authors accept no responsibility for the performance of
    the code or for the correctness of the results.
     
    The code (in whole or part) is provided under a licence and
    is not to be reproduced for further distribution without
    the written permission of the authors or their representatives.
     
    See the home page "http://daltonprogram.org" for further information.
     
    If results obtained with this code are published,
    the appropriate citations would be both of:
     
       K. Aidas, C. Angeli, K. L. Bak, V. Bakken,
       R. Bast, L. Boman, O. Christiansen, R. Cimiraglia,
       S. Coriani, P. Dahle, E. K. Dalskov, U. Ekstroem,
       T. Enevoldsen, J. J. Eriksen, P. Ettenhuber, B. Fernandez,
       L. Ferrighi, H. Fliegl, L. Frediani, K. Hald, A. Halkier,
       C. Haettig, H. Heiberg, T. Helgaker, A. C. Hennum,
       H. Hettema, E. Hjertenaes, S. Hoest, I.-M. Hoeyvik,
       M. F. Iozzi, B. Jansik, H. J. Aa. Jensen, D. Jonsson,
       P. Joergensen, J. Kauczor, S. Kirpekar,
       T. Kjaergaard, W. Klopper, S. Knecht, R. Kobayashi, H. Koch,
       J. Kongsted, A. Krapp, K. Kristensen, A. Ligabue,
       O. B. Lutnaes, J. I. Melo, K. V. Mikkelsen, R. H. Myhre,
       C. Neiss, C. B. Nielsen, P. Norman, J. Olsen,
       J. M. H. Olsen, A. Osted, M. J. Packer, F. Pawlowski,
       T. B. Pedersen, P. F. Provasi, S. Reine, Z. Rinkevicius,
       T. A. Ruden, K. Ruud, V. Rybkin, P. Salek, C. C. M. Samson,
       A. Sanchez de Meras, T. Saue, S. P. A. Sauer,
       B. Schimmelpfennig, K. Sneskov, A. H. Steindal,
       K. O. Sylvester-Hvid, P. R. Taylor, A. M. Teale,
       E. I. Tellgren, D. P. Tew, A. J. Thorvaldsen, L. Thoegersen,
       O. Vahtras, M. A. Watson, D. J. D. Wilson, M. Ziolkowski
       and H. Agren,
       "The Dalton quantum chemistry program system",
       WIREs Comput. Mol. Sci. 2014, 4:269-284 (doi: 10.1002/wcms.1172)
     
    and
     
       Dalton, a molecular electronic structure program,
       Release Dalton2024.0-dev (2024), see http://daltonprogram.org
   ----------------------------------------------------------------------------

    Authors in alphabetical order (Major contribution(s) in parenthesis):

  Kestutis Aidas,              Vilnius University,        Lithuania   (QM/MM)
  Celestino Angeli,            University of Ferrara,     Italy       (NEVPT2)
  Juan J. Aucar,               Northeast National UniversiArgentina   (LRESC, Relativistic Effects on EFG)
  Keld L. Bak,                 UNI-C,                     Denmark     (AOSOPPA, non-adiabatic coupling, magnetic properties)
  Vebjoern Bakken,             University of Oslo,        Norway      (DALTON; geometry optimizer, symmetry detection)
  Radovan Bast,                UiT The Arctic U. of NorwayNorway      (DALTON installation and execution frameworks)
  Pablo Baudin,                University of Valencia,    Spain       (Cholesky excitation energies)
  Linus Boman,                 NTNU,                      Norway      (Cholesky decomposition and subsystems)
  Bruno N. Cabral Tenorio,     Technical Univ. of Denmark,Denmark     (Lanczos-based CC methods)
  Ove Christiansen,            Aarhus University,         Denmark     (CC module)
  Renzo Cimiraglia,            University of Ferrara,     Italy       (NEVPT2)
  Sonia Coriani,               Technical Univ. of Denmark,Denmark     (CC and RESPONS modules)
  Janusz Cukras,               University of Warsaw,      Poland      (MChD in RESPONS)
  Paal Dahle,                  University of Oslo,        Norway      (Parallelization)
  Erik K. Dalskov,             UNI-C,                     Denmark     (SOPPA)
  Thomas Enevoldsen,           Univ. of Southern Denmark, Denmark     (SOPPA)
  Janus J. Eriksen,            Aarhus University,         Denmark     (Polarizable embedding, TDA)
  Rasmus Faber,                Technical Univ. of Denmark,Denmark     (Vib.avg. NMR w. SOPPA, parallel AO-SOPPA, CVS-CC and EOMCC)
  Tobias Fahleson,             KTH Stockholm,             Sweden      (Damped cubic response)
  Berta Fernandez,             U. of Santiago de CompostelSpain       (Doublet spin, ESR in RESPONS)
  Lara Ferrighi,               Aarhus University,         Denmark     (PCM Cubic response)
  Heike Fliegl,                University of Oslo,        Norway      (CCSD(R12))
  Luca Frediani,               UiT The Arctic U. of NorwayNorway      (PCM)
  Emmanuel Fromager,           Univ. Strasbourg,          France      (MC-srDFT)
  Bin Gao,                     UiT The Arctic U. of NorwayNorway      (Gen1Int library)
  Andre S. P. Gomes,           CNRS/Universite de Lille,  France      (Frozen density embedding)
  Christof Haettig,            Ruhr-University Bochum,    Germany     (CC module)
  Kasper Hald,                 Aarhus University,         Denmark     (CC module)
  Asger Halkier,               Aarhus University,         Denmark     (CC module)
  Frederik Beyer Hansen,       University of Copenhagen,  Denmark     (Parallel AO-SOPPA)
  Erik D. Hedegaard,           Univ. of Southern Denmark, Denmark     (Polarizable embedding, QM/MM, and MC-srDFT)
  Hanne Heiberg,               University of Oslo,        Norway      (Geometry analysis, selected one-electron integrals)
  Trygve Helgaker,             University of Oslo,        Norway      (DALTON; ABACUS, ERI, DFT modules, London, and much more)
  Alf Christian Hennum,        University of Oslo,        Norway      (Parity violation)
  Hinne Hettema,               University of Auckland,    New Zealand (Quadratic response in RESPONS; SIRIUS supersymmetry)
  Andreas E. Hillers-Bendtsen, University of Copenhagen,  Denmark     (MP3)
  Eirik Hjertenaes,            NTNU,                      Norway      (Cholesky decomposition)
  Nicolai Machholdt Hoeyer,    Aarhus University,         Denmark     (MP3)
  Pi A. B. Haase,              University of Copenhagen,  Denmark     (Triplet AO-SOPPA)
  Maria Francesca Iozzi,       University of Oslo,        Norway      (RPA)
  Christoph Jacob,             TU Braunschweig            Germany     (Frozen density embedding)
  Brano Jansik,                Technical Univ. of Ostrava Czech Rep.  (DFT cubic response)
  Hans Joergen Aa. Jensen,     Univ. of Southern Denmark, Denmark     (DALTON; SIRIUS, RESPONS, ABACUS, MC-srDFT, and much more)
  Dan Jonsson,                 UiT The Arctic U. of NorwayNorway      (Cubic response in RESPONS module)
  Poul Joergensen,             Aarhus University,         Denmark     (RESPONS, ABACUS, and CC modules)
  Maciej Kaminski,             University of Warsaw,      Poland      (CPPh in RESPONS)
  Joanna Kauczor,              Linkoeping University,     Sweden      (Complex polarization propagator (CPP) module)
  Sheela Kirpekar,             Univ. of Southern Denmark, Denmark     (Mass-velocity & Darwin integrals)
  Frederik Oersted Kjeldal,    Technical Univ. of Denmark,Denmark     (MP3)
  Erik Kjellgren,              Univ. of Southern Denmark, Denmark     (MC-srDFT)
  Wim Klopper,                 KIT Karlsruhe,             Germany     (R12 code in CC, SIRIUS, and ABACUS modules)
  Stefan Knecht,               ETH Zurich,                Switzerland (Parallel CI and MCSCF, MC-srDFT)
  Rika Kobayashi,              Australian National Univ., Australia   (DIIS in CC, London in MCSCF)
  Henrik Koch,                 NTNU,                      Norway      (CC module, Cholesky decomposition)
  Jacob Kongsted,              Univ. of Southern Denmark, Denmark     (Polarizable embedding, polarizable density embedding, QM/MM)
  Andrea Ligabue,              University of Modena,      Italy       (CTOCD, AOSOPPA)
  Nanna H. List,               Univ. of Southern Denmark, Denmark     (Polarizable embedding)
  Ola B. Lutnaes,              University of Oslo,        Norway      (DFT Hessian)
  Juan I. Melo,                University of Buenos Aires,Argentina   (LRESC, Relativistic Effects on NMR Shieldings)
  Kurt V. Mikkelsen,           University of Copenhagen,  Denmark     (MC-SCRF, QM/MM, and MP3)
  Rolf H. Myhre,               NTNU,                      Norway      (Subsystems and CC3)
  Christian Neiss,             Univ. Erlangen-Nuernberg,  Germany     (CCSD(R12))
  Christian B. Nielsen,        University of Copenhagen,  Denmark     (QM/MM)
  Patrick Norman,              KTH Stockholm,             Sweden      (Cubic response and complex frequency response in RESPONS)
  Jeppe Olsen,                 Aarhus University,         Denmark     (SIRIUS CI/density modules)
  Jogvan Magnus H. Olsen,      Aarhus University,         Denmark     (Polarizable embedding and polarizable density embedding)
  Anders Osted,                Copenhagen University,     Denmark     (QM/MM)
  Martin J. Packer,            University of Sheffield,   UK          (SOPPA)
  Filip Pawlowski,             Kazimierz Wielki UniversityPoland      (CC3)
  Morten N. Pedersen,          Univ. of Southern Denmark, Denmark     (Polarizable embedding)
  Thomas B. Pedersen,          University of Oslo,        Norway      (Cholesky decomposition)
  Patricio F. Provasi,         University of Northeastern,Argentina   (Analysis of coupling constants in localized orbitals)
  Peter Reinholdt,             Univ. of Southern Denmark, Denmark     (Polarizable embedding and polarizable density embedding)
  Zilvinas Rinkevicius,        KTH Stockholm,             Sweden      (open-shell DFT, ESR)
  Elias Rudberg,               KTH Stockholm,             Sweden      (DFT grid and basis info)
  Torgeir A. Ruden,            University of Oslo,        Norway      (Numerical derivatives in ABACUS)
  Kenneth Ruud,                UiT The Arctic U. of NorwayNorway      (DALTON; ABACUS magnetic properties and much more)
  Pawel Salek,                 KTH Stockholm,             Sweden      (DALTON; DFT code)
  Claire C. M. Samson,         University of Karlsruhe    Germany     (Boys localization, r12 integrals in ERI)
  Alfredo Sanchez de Meras,    University of Valencia,    Spain       (CC module, Cholesky decomposition)
  Trond Saue,                  Paul Sabatier University,  France      (direct Fock matrix construction)
  Stephan P. A. Sauer,         University of Copenhagen,  Denmark     (SOPPA(CCSD), SOPPA prop., AOSOPPA, vibrational g-factors)
  Bernd Schimmelpfennig,       Forschungszentrum KarlsruheGermany     (AMFI module)
  Anna K. Schnack-Petersen,    University of Copenhagen,  Denmark     (RPA(D) and HRPA(D) properties in AOSOPPA)
  Kristian Sneskov,            Aarhus University,         Denmark     (Polarizable embedding, QM/MM)
  Arnfinn H. Steindal,         UiT The Arctic U. of NorwayNorway      (parallel QM/MM, polarizable embedding)
  Casper Steinmann,            Aalborg University,        Denmark     (QFIT, polarizable embedding)
  K. O. Sylvester-Hvid,        University of Copenhagen,  Denmark     (MC-SCRF)
  Peter R. Taylor,             VLSCI/Univ. of Melbourne,  Australia   (Symmetry handling ABACUS, integral transformation)
  Andrew M. Teale,             University of Nottingham,  England     (DFT-AC, DFT-D)
  David P. Tew,                University of Bristol,     England     (CCSD(R12))
  Julien Toulouse,             Sorbonne Univ.,            France      (MC-srDFT)
  Olav Vahtras,                KTH Stockholm,             Sweden      (Triplet response, spin-orbit, ESR, TDDFT, open-shell DFT)
  Lucas Visscher,              Vrije Universiteit AmsterdaNetherlands (Frozen density embedding)
  David J. Wilson,             La Trobe University,       Australia   (DFT Hessian and DFT magnetizabilities)
  Luna Zamok,                  University of Copenhagen,  Denmark     (Block Lanczos RPA solver in SOPPA module)
  Hans Agren,                  KTH Stockholm,             Sweden      (SIRIUS module, RESPONS, MC-SCRF solvation)
 --------------------------------------------------------------------------------

     Date and time (Linux)  : Tue Jul  7 15:03:49 2026
     Host name              : n-62-31-23                              

 * Work memory size             :   512000000 =  3.815 gigabytes.

 * Directories for basis set searches:
   1) /work3/jochar/DaltonTests
   2) /zhome/d7/7/119775/My_Codes/Dalton_Release/dalton/build_omp_nov24/basis


Compilation information
-----------------------

 Who compiled             | soco
 Host                     | hpclogin1
 System                   | Linux-6.1.112-1.el9.elrepo.x86_64
 CMake generator          | Unix Makefiles
 Processor                | x86_64
 64-bit integers          | OFF
 MPI                      | OFF
 Fortran compiler         | /appl/intel/2023.2.0.49397/compiler/2023.2.0/linux
                          | /bin/intel64/ifort
 Fortran compiler version | ifort (IFORT) 2021.10.0 20230609
 C compiler               | /appl/intel/2023.2.0.49397/compiler/2023.2.0/linux
                          | /bin/intel64/icc
 C compiler version       | icc (ICC) 2021.10.0 20230609
 C++ compiler             | /appl/intel/2023.2.0.49397/compiler/2023.2.0/linux
                          | /bin/intel64/icpc
 C++ compiler version     | icpc (ICC) 2021.10.0 20230609
 Static linking           | OFF
 Last Git revision        | a531ac4fbf115ebda1c90140ce3fd6aa236a2033
 Git branch               | master
 Configuration time       | 2024-11-14 11:23:30.470039

 * Sequential calculation.


   Content of the .dal input file
 ----------------------------------

**DALTON INPUT
.RUN WAVE FUNCTIONS   !tipo di calcolo
.RUN RESPONSE
**INTEGRALS
.DIPLEN               !integrali dell'operatore dipolo elettrico
**WAVE FUNCTION
.HF
.CI
!*PRINT
!.PRINTL
!   0 11
*SCF INP              !parte da Hartree-Fock
.DOUBLY OCCUPIED
5
.THRESH               !soglia di convergenza
 1.0D-10
*CONFIGURATION INPUT
.SPIN MULTIPLICITY
1
.SYMMETRY
1
.INACTIVE ORBITALS !the inner electrons are kept frozen
3
.CAS SPACE
4
.ELECTRONS
4
**RESPONS
*LINEAR
.THCLR
1.0d-9
.DIPLEN
.SINGLE RESIDUE
.ROOTS
300
**END OF INPUT


   Content of the .mol file
 ----------------------------

BASIS
STO-3G
test VQE
dalton test
Atomtypes=2 Angstrom Nosymmetry
Charge=8.0 Atoms=1
O     0.1035000000000000  0.0000000000000000  0.0
Charge=1.0 Atoms=2
H    -0.4640000000000000  0.7956000000000000  0.0
H    -0.4640000000000000  -0.7956000000000000  0.0


       *******************************************************************
       *********** Output from DALTON general input processing ***********
       *******************************************************************

 --------------------------------------------------------------------------------
   Overall default print level:    0
   Print level for DALTON.STAT:    1

    HERMIT 1- and 2-electron integral sections will be executed
    "Old" integral transformation used (limited to max 255 basis functions)
    Wave function sections will be executed (SIRIUS module)
    Dynamic molecular response properties section will be executed (RESPONSE module)
 --------------------------------------------------------------------------------


   ****************************************************************************
   *************** Output of molecule and basis set information ***************
   ****************************************************************************


    The two title cards from your ".mol" input:
    --------------------------------------------------------------------------------
 1: test VQE
 2: dalton test
    --------------------------------------------------------------------------------

  Coordinates are entered in Angstrom and converted to atomic units.
          - Conversion factor : 1 bohr = 0.52917721 A

  Atomic type no.    1
  --------------------
  Nuclear charge:   8.00000
  Number of symmetry independent centers:    1
  Number of basis sets to read;    2
  Basis set file used for this atomic type with Z =   8 :
     "/zhome/d7/7/119775/My_Codes/Dalton_Release/dalton/build_omp_nov24/basis/STO-3G"

  Atomic type no.    2
  --------------------
  Nuclear charge:   1.00000
  Number of symmetry independent centers:    2
  Number of basis sets to read;    2
  Basis set file used for this atomic type with Z =   1 :
     "/zhome/d7/7/119775/My_Codes/Dalton_Release/dalton/build_omp_nov24/basis/STO-3G"


                         SYMGRP: Point group information
                         -------------------------------

@    Point group: C1 


                                 Isotopic Masses
                                 ---------------

                           O          15.994915
                           H           1.007825
                           H           1.007825

                       Total mass:    18.010565 amu
                       Natural abundance:  99.730 %

 Center-of-mass coordinates (a.u.):    0.075567    0.000000    0.000000
 Center-of-mass coordinates (Angs):    0.039988    0.000000    0.000000


  Atoms and basis sets
  --------------------

  Number of atom types :    2
  Total number of atoms:    3

  Basis set used is "STO-3G" from the basis set library.

  label    atoms   charge   prim   cont     basis
  ----------------------------------------------------------------------
  O           1    8.0000    15     5      [6s3p|2s1p]                                        
  H           2    1.0000     3     1      [3s|1s]                                            
  ----------------------------------------------------------------------
  total:      3   10.0000    21     7
  ----------------------------------------------------------------------

  Threshold for neglecting AO integrals:  1.00D-12


  Cartesian Coordinates (a.u.)
  ----------------------------

  Total number of coordinates:    9
  O       :     1  x   0.1955866539    2  y   0.0000000000    3  z   0.0000000000
  H       :     4  x  -0.8768329220    5  y   1.5034661050    6  z   0.0000000000
  H       :     7  x  -0.8768329220    8  y  -1.5034661050    9  z   0.0000000000


   Interatomic separations (in Angstrom):
   --------------------------------------

            O           H           H     
            ------      ------      ------
 O     :    0.000000
 H     :    0.977259    0.000000
 H     :    0.977259    1.591200    0.000000


  Max    interatomic separation is    1.5912 Angstrom (    3.0069 Bohr)
  between atoms    3 and    2, "H     " and "H     ".

  Min HX interatomic separation is    0.9773 Angstrom (    1.8468 Bohr)


  Bond distances (Angstrom):
  --------------------------

                  atom 1     atom 2       distance
                  ------     ------       --------
  bond distance:  H          O            0.977259
  bond distance:  H          O            0.977259


  Bond angles (degrees):
  ----------------------

                  atom 1     atom 2     atom 3         angle
                  ------     ------     ------         -----
  bond angle:     H          O          H            109.000




 Principal moments of inertia (u*A**2) and principal axes
 --------------------------------------------------------

   IA       0.576503          0.000000    1.000000    0.000000
   IB       1.275865          1.000000    0.000000    0.000000
   IC       1.852368          0.000000    0.000000    1.000000


 Rotational constants
 --------------------

@    The molecule is planar.

               A                   B                   C

         876628.8169         396107.0071         272828.6660 MHz
           29.241190           13.212708            9.100585 cm-1


@  Nuclear repulsion energy :    8.996423008986 Hartree


                     .---------------------------------------.
                     | Starting in Integral Section (HERMIT) |
                     `---------------------------------------'



 ***************************************************************************************
 ****************** Output from **INTEGRALS input processing (HERMIT) ******************
 ***************************************************************************************



    *************************************************************************
    ****************** Output from HERMIT input processing ******************
    *************************************************************************


 Default print level:        1

 Calculation of one- and two-electron Hamiltonian integrals.

 The following one-electron property integrals are calculated as requested:
          - overlap integrals
          - dipole length integrals

 Center of mass  (bohr):      0.075566958928      0.000000000000      0.000000000000
 Operator center (bohr):      0.000000000000      0.000000000000      0.000000000000
 Gauge origin    (bohr):      0.000000000000      0.000000000000      0.000000000000
 Dipole origin   (bohr):      0.000000000000      0.000000000000      0.000000000000

Calculation of 2-electron integrals are postponed until they are needed.


     ************************************************************************
     ************************** Output from HERINT **************************
     ************************************************************************



                      Nuclear contribution to dipole moments
                      --------------------------------------

                 au               Debye          C m (/(10**-30)

      x     -0.18897261        -0.48032044        -1.60217653
      y      0.00000000         0.00000000         0.00000000
      z      0.00000000         0.00000000         0.00000000


  Total CPU  time used in HERMIT:   0.01 seconds
  Total wall time used in HERMIT:   0.03 seconds


                        .----------------------------------.
                        | End of Integral Section (HERMIT) |
                        `----------------------------------'



                   .--------------------------------------------.
                   | Starting in Wave Function Section (SIRIUS) |
                   `--------------------------------------------'


     WARNING  Reference state is required for CI response and CI-NO
     WARNING  ".STATE" was not specified for "*CI INPUT",
     WARNING  the reference state is set to be state no.  1

 *** Output from Huckel module :

     Using EWMO model:          T
     Using EHT  model:          F
     Number of Huckel orbitals each symmetry:    7

 EWMO - Energy Weighted Maximum Overlap - is a Huckel type method,
        which normally is better than Extended Huckel Theory.
 Reference: Linderberg and Ohrn, Propagators in Quantum Chemistry (Wiley, 1973)

 Huckel EWMO eigenvalues for symmetry :  1
          -20.684655      -1.594745      -0.787122      -0.682665      -0.616200
           -0.240931      -0.173582

 **********************************************************************
 *SIRIUS* a direct, restricted step, second order MCSCF program       *
 **********************************************************************

 
     Date and time (Linux)  : Tue Jul  7 15:03:49 2026
     Host name              : n-62-31-23                              

 Title lines from ".mol" input file:
     test VQE
     dalton test

 Print level on unit LUPRI =   2 is   0
 Print level on unit LUW4  =   2 is   5

@    Configuration interaction calculation.

@    CI response calculation.

@    CI type: user specified active spaces.
@              Type: complete active space calculation (CAS).

@    This is a combination run starting with
@              a restricted, closed shell Hartree-Fock calculation


 Initial molecular orbitals are obtained according to
 ".MOSTART EWMO  " input option

     Wave function specification
     ============================
@    Wave function type        --- CI ---
@    Number of closed shell electrons           6
@    Number of electrons in active shells       4
@    Total charge of the molecule               0

@    Spin multiplicity and 2 M_S                1         0
@    Total number of symmetries                 1 (point group: C1 )
@    Reference state symmetry                   1 (irrep name : A  )

     Orbital specifications
     ======================
@    Abelian symmetry species          All |    1
@                                          |  A  
                                       --- |  ---
@    Inactive orbitals                   3 |    3
@    Active orbitals                     4 |    4
@    Secondary orbitals                  0 |    0
@    Total number of orbitals            7 |    7
@    Number of basis functions           7 |    7

      -- Initial occupation of symmetries is determined from user input.                      
      -- Initial occupation of symmetries is :
@    Occupied SCF orbitals               5 |    5

     Optimization information
     ========================
@    Number of configurations                20
@    Number of orbital rotations              0
     ------------------------------------------
@    Total number of variables               20

     Maximum number of CI iterations         25
     Threshold for CI convergence      1.00D-05
     Number of CI roots to converge           1

@    Reference state in CI response calculation :       1


 ***********************************************
 ***** DIIS acceleration of SCF iterations *****
 ***********************************************

 C1-DIIS algorithm; max error vectors =    8

 Iter      Total energy        Error norm    Delta(E)  DIIS dim.
 -----------------------------------------------------------------------------

Calculating AOSUPINT

---> (Re)generating AOTWOINT


     ************************************************************************
     ************************** Output from HERINT **************************
     ************************************************************************


 Threshold for neglecting two-electron integrals:  1.00D-12
 HERMIT - Number of two-electron integrals written:         228 ( 56.2% )
 HERMIT - Megabytes written:                              0.137

     (Precalculated AO two-electron integrals are transformed to P-supermatrix elements.
      Threshold for discarding integrals :  1.00D-12 )

@  1    -74.9147546503        7.22428D-01   -7.49D+01    1
      Virial theorem: -V/T =      2.004517
@    MULPOP   O      -0.46; H       0.23; H       0.23; 
   1  Level shift: doubly occupied orbital energies shifted by -2.00D-01
 -----------------------------------------------------------------------------
@  2    -74.9573554605        2.18829D-01   -4.26D-02    2
      Virial theorem: -V/T =      2.006532
@    MULPOP   O      -0.37; H       0.18; H       0.18; 
   2  Level shift: doubly occupied orbital energies shifted by -1.00D-01
 -----------------------------------------------------------------------------
@  3    -74.9622160084        3.60736D-02   -4.86D-03    3
      Virial theorem: -V/T =      2.005790
@    MULPOP   O      -0.36; H       0.18; H       0.18; 
   3  Level shift: doubly occupied orbital energies shifted by -2.50D-02
 -----------------------------------------------------------------------------
@  4    -74.9623530973        2.91022D-03   -1.37D-04    4
      Virial theorem: -V/T =      2.005607
@    MULPOP   O      -0.36; H       0.18; H       0.18; 
 -----------------------------------------------------------------------------
@  5    -74.9623547782        3.33498D-04   -1.68D-06    5
      Virial theorem: -V/T =      2.005590
@    MULPOP   O      -0.36; H       0.18; H       0.18; 
 -----------------------------------------------------------------------------
@  6    -74.9623547998        8.44260D-06   -2.15D-08    6
      Virial theorem: -V/T =      2.005591
@    MULPOP   O      -0.36; H       0.18; H       0.18; 
 -----------------------------------------------------------------------------
@  7    -74.9623547998        5.44501D-08   -1.04D-11    7
      Virial theorem: -V/T =      2.005591
@    MULPOP   O      -0.36; H       0.18; H       0.18; 
 -----------------------------------------------------------------------------
@  8    -74.9623547998        1.29942D-09    0.00D+00    8
      Virial theorem: -V/T =      2.005591
@    MULPOP   O      -0.36; H       0.18; H       0.18; 
 -----------------------------------------------------------------------------
@  9    -74.9623547998        2.89494D-08    0.00D+00    8
      Virial theorem: -V/T =      2.005591
@    MULPOP   O      -0.36; H       0.18; H       0.18; 
 -----------------------------------------------------------------------------
@ 10    -74.9623547998        9.82237D-15    2.84D-14    8

@ *** DIIS converged in  10 iterations !
@     Converged SCF energy, gradient:    -74.962354799773    9.82D-15
    - total time used in SIRFCK :              0.00 seconds

 --- Writing SIRIFC interface file

--------------------------------------------------------------------------------


     .--------------------------------------------------.
     | HF-SCF KT IPs [a.u. & eV] from Koopmans' theorem |
     `--------------------------------------------------'


     HF-SCF KT symmetry 1 ( A  ) in point group C1  -- 5 principal poles with pole strength 1

   ============  ============  ============  ============  ============
      20.237430      1.253011      0.614069      0.439628      0.386334
     550.688496     34.096172     16.709655     11.962878     10.512676
   ============  ============  ============  ============  ============

@ Summary of HF-SCF KT ionization potentials [eV]:

@ Symmetry 1 (A  ) :   550.688      34.096      16.710      11.963      10.513

  === End of HF-SCF KT output ===
--------------------------------------------------------------------------------


 CPU and wall time for SCF :       0.061       0.370


 ----- Output from SIRIUS CI module (CICTL) -----




 2-el. integral transformation level 0: Total CPU and WALL times (sec)       0.006       0.042

 (CIST1) 8 lowest diagonal elements:

 Element no. Config.no.    Active energy      Total energy

         1 :          1     -6.1119766520    -74.9623547998
         2 :          7     -5.6938654827    -74.5442436305
         3 :          8     -5.5942635277    -74.4446416755
         4 :         10     -5.5715480313    -74.4219261791
         5 :         11     -5.4803040574    -74.3306822052
         6 :         19     -4.9731643843    -73.8235425321
         7 :         20     -4.9731643843    -73.8235425321
         8 :          2     -4.9710249323    -73.8214030801

Lowest 1 elements are used as separate start CI vectors.


 Convergence threshold for CI optimization :     0.00001000


 CI root     eigenvalue        residual norm

    1      -74.9623547998        0.1068291307

 CI root     eigenvalue        residual norm

    1      -74.9698561974        0.0106439300

 CI root     eigenvalue        residual norm

    1      -74.9699898433        0.0013702619

 CI root     eigenvalue        residual norm

    1      -74.9699909627        0.0001113122

 CI root     eigenvalue        residual norm

    1      -74.9699909726        0.0000070580 converged

 The requested root number is now converged.


 *** CI converged in  5 iterations.



@ Final CI energies and residuals in symmetry 1 (irrep A  )
@    1      -74.969990972588320       7.06D-06

 Writing SIRIFC interface file for CI root no. 1

 CPU and wall time for CI :       0.015       0.112


                       .-----------------------------------.
                       | --- Final results from SIRIUS --- |
                       `-----------------------------------'


@    Spin multiplicity:           1
@    Spatial symmetry:            1 ( irrep  A   in C1  )
@    Total charge of molecule:    0

@    This was a CI calculation.
@    State number:                1

@    Final CI energy:             -74.969990972588
@    Nuclear repulsion:             8.996423008986
@    Electronic energy:           -83.966413981574

@    Final gradient norm:           0.000007057975

 
     Date and time (Linux)  : Tue Jul  7 15:03:50 2026
     Host name              : n-62-31-23                              

 Occupancies of natural orbitals
 -------------------------------

 Symmetry 1  ( A  ) -- Total occupation in this symmetry is  10.000000000

   2.000000000   2.000000000   2.000000000   1.991936280   1.997814000
   0.006145530   0.004104191

  Effective numbers of unpaired electrons this symmetry Eqs. 1) and 2):  0.04  0.00

  Total effective number of unpaired electrons :
  Eq. 1) sum(i) [(2 - n_i) n_i]    =  0.0409
  Eq. 2) sum(i) [(2 - n_i) n_i]**2 =  0.0005
 (Reference: M. Head-Gordon, Chemical Physics Letters 372 (2003) 508-511)

  --- NOTE THAT THE OCCUPATION NUMBERS ARE FOR ANALYSIS PURPOSE ONLY
  --- The orbital coefficients have NOT been transformed
  --- to ordered natural orbitals.

File label for MO orbitals:   7Jul26    CIORB  

 (Only coefficients > 0.0100 are printed.)

 Molecular orbitals for symmetry species 1  (A  )
 ------------------------------------------------

    Orbital         1        2        3        4        5        6        7
   1 O   :1s    -0.9942   0.2339   0.0000   0.0993  -0.0000   0.1315  -0.0000
   2 O   :1s    -0.0262  -0.8416  -0.0000  -0.5170   0.0000  -0.8601   0.0000
   3 O   :2px    0.0040   0.1182  -0.0000  -0.7863   0.0000   0.7166  -0.0000
   4 O   :2py    0.0000  -0.0000  -0.5996  -0.0000   0.0000  -0.0000  -0.9917
   5 O   :2pz   -0.0000  -0.0000  -0.0000  -0.0000  -1.0000   0.0000   0.0000
   6 H   :1s     0.0058  -0.1581  -0.4440   0.2807   0.0000   0.7874   0.8181
   7 H   :1s     0.0058  -0.1581   0.4440   0.2807  -0.0000   0.7874  -0.8181

 Printout of CI-coefficients abs greater than 0.05000 for root  1
 *** NOTE: this root is the CI reference state ***

 Printout of coefficients in interval  3.1623E-01 to  1.0000E+00
 ===============================================================

  Coefficient of CSF no.         1 is      0.99734598    9.97345979E-01
  Orbital          1   2
  Spin coupling    2   2

 Printout of coefficients in interval  1.0000E-01 to  3.1623E-01
 ===============================================================
   ( no coefficients )

 Printout of coefficients in interval  5.0000E-02 to  1.0000E-01
 ===============================================================
   ( no coefficients )

 Norm of printed CI vector ..      0.99469900

 Magnitude of CI coefficients
 ============================
 ( Ranges are relative to norm of vector :  1.00E+00 )

  10- 1 to 10- 0         1    0.99469900E+00      0.9946990024
  10- 2 to 10- 1         5    0.52964494E-02      0.9999954518
  10- 3 to 10- 2         1    0.41685311E-05      0.9999996203
  10- 4 to 10- 3         1    0.37969237E-06      1.0000000000
  Number of coefficients less than 10^-11 times norm is           12

  Total CPU  time used in SIRIUS :   0.10 seconds
  Total wall time used in SIRIUS :   0.56 seconds

 
     Date and time (Linux)  : Tue Jul  7 15:03:50 2026
     Host name              : n-62-31-23                              


                     .---------------------------------------.
                     | End of Wave Function Section (SIRIUS) |
                     `---------------------------------------'



                 .------------------------------------------------.
                 | Starting in Dynamic Property Section (RESPONS) |
                 `------------------------------------------------'


 ----------------------------------------------------------------------------------------
  RESPONSE  -  an MCSCF, MC-srDFT, DFT, SOPPA and SOPPA-srDFT response property program
 ----------------------------------------------------------------------------------------

 This is a configuration interaction response calculation.
   Note: this is equivalent to a CI sum-over-states calculation of response properties.


 -------- OUTPUT FROM RESPONSE INPUT PROCESSING --------




  Linear Response single residue calculation
 -------------------------------------------


    4 input options by user.

 Print level                                    : IPRPP  =   2
 Maximum number of iterations for eigenval.eqs. : MAXITP =  60
 Threshold for convergence of eigenvalue eqs.   : THCPP  = 1.000D-03
 Maximum iterations in optimal orbital algorithm: MAXITO =   5

    300 Excitation energies are calculated for symmetry no.    1

      3 property residues are calculated with labels:

               XDIPLEN 
               YDIPLEN 
               ZDIPLEN 

 Old direct access AO file found, SORTA skipped.

 2-el. integral transformation level 4: Total CPU and WALL times (sec)       0.005       0.022


 CI energy            :      -74.969990972588320
 -- inactive part     :      -68.850378147787950
 --   active part     :       -6.119612824800370
 -- nuclear repulsion :        8.996423008985666


                         *******************************
                         *** CI response calculation ***
                         *******************************

 ----------------------------------------------------------------
 ----- Linear response calculation
 ----- Symmetry of excitation/property operator(s)    1  ( A  )
 ----------------------------------------------------------------

 Number of excitations of this symmetry          300
 Number of response properties of this symmetry    0
 Number of C6/C8 properties of this symmetry       0


 Perturbation symmetry.     KSYMOP:           1
 Perturbation spin symmetry.TRPLET:           F
 Orbital variables.         KZWOPT:           0
 Configuration variables.   KZCONF:          20
 Total number of variables. KZVAR :          20

 ** RSPVAR ** Number of PP start vectors  300
   exceeds the maximum number of variables   19
   Number of start vectors reset to number of variables



 --- EXCITATION ENERGIES AND TRANSITION MOMENT CALCULATION (MCTDHF) ---

 Operator symmetry = 1  ( A  ); triplet =   F

RSPORT:    1 out of   20 new trial vectors linear dependent

 ** RSPCTL MICROITERATION NUMBER    1

      Root  Residual tot.,    conf., and orb.    Bnorm      Eigenvalue
      ----------------------------------------------------------------
         1    7.72288D-16  7.72D-16  0.00D+00  1.00D+00    4.51603D-01
         2    1.78149D-15  1.78D-15  0.00D+00  1.00D+00    5.36193D-01
         3    1.19351D-15  1.19D-15  0.00D+00  1.00D+00    5.97034D-01
         4    1.67474D-15  1.67D-15  0.00D+00  1.00D+00    6.82788D-01
         5    2.30943D-15  2.31D-15  0.00D+00  1.00D+00    1.04955D+00
         6    8.27653D-16  8.28D-16  0.00D+00  1.00D+00    1.12714D+00
         7    2.42485D-15  2.42D-15  0.00D+00  1.00D+00    1.15881D+00
         8    1.71113D-15  1.71D-15  0.00D+00  1.00D+00    1.28007D+00
         9    1.52360D-15  1.52D-15  0.00D+00  1.00D+00    1.29937D+00
        10    1.12727D-15  1.13D-15  0.00D+00  1.00D+00    1.33483D+00
        11    1.69084D-15  1.69D-15  0.00D+00  1.00D+00    1.35268D+00
        12    7.47097D-16  7.47D-16  0.00D+00  1.00D+00    1.40326D+00
        13    2.11506D-15  2.12D-15  0.00D+00  1.00D+00    1.52039D+00
        14    3.68639D-15  3.69D-15  0.00D+00  1.00D+00    1.56962D+00
        15    2.82957D-15  2.83D-15  0.00D+00  1.00D+00    1.99620D+00
        16    4.74163D-15  4.74D-15  0.00D+00  1.00D+00    2.01017D+00
        17    5.92785D-15  5.93D-15  0.00D+00  1.00D+00    2.08460D+00
        18    5.08365D-15  5.08D-15  0.00D+00  1.00D+00    2.08570D+00
        19    2.19036D-15  2.19D-15  0.00D+00  1.00D+00    2.98256D+00
        20    1.56253D-15  1.56D-15  0.00D+00  1.00D+00   -4.51603D-01

 *** THE REQUESTED   19 SOLUTION VECTORS CONVERGED

 Convergence of RSP solution vectors, threshold = 1.00D-03
 ---------------------------------------------------------------
 (dimension of paired reduced space:   38)
 RSP solution vector no.    1; norm of residual   7.72D-16
 RSP solution vector no.    2; norm of residual   1.78D-15
 RSP solution vector no.    3; norm of residual   1.19D-15
 RSP solution vector no.    4; norm of residual   1.67D-15
 RSP solution vector no.    5; norm of residual   2.31D-15
 RSP solution vector no.    6; norm of residual   8.28D-16
 RSP solution vector no.    7; norm of residual   2.42D-15
 RSP solution vector no.    8; norm of residual   1.71D-15
 RSP solution vector no.    9; norm of residual   1.52D-15
 RSP solution vector no.   10; norm of residual   1.13D-15
 RSP solution vector no.   11; norm of residual   1.69D-15
 RSP solution vector no.   12; norm of residual   7.47D-16
 RSP solution vector no.   13; norm of residual   2.12D-15
 RSP solution vector no.   14; norm of residual   3.69D-15
 RSP solution vector no.   15; norm of residual   2.83D-15
 RSP solution vector no.   16; norm of residual   4.74D-15
 RSP solution vector no.   17; norm of residual   5.93D-15
 RSP solution vector no.   18; norm of residual   5.08D-15
 RSP solution vector no.   19; norm of residual   2.19D-15

 *** RSPCTL MICROITERATIONS CONVERGED

@ Singlet transition operator label: XDIPLEN 
@ STATE NO:    1 *TRANSITION MOMENT:  1.58175458E-16 *ENERGY(eV):   12.288756    
@ STATE NO:    2 *TRANSITION MOMENT: -5.82251272E-15 *ENERGY(eV):   14.590558    
@ STATE NO:    3 *TRANSITION MOMENT: -0.62591056     *ENERGY(eV):   16.246129    
@ STATE NO:    4 *TRANSITION MOMENT:  4.18239944E-15 *ENERGY(eV):   18.579616    
@ STATE NO:    5 *TRANSITION MOMENT:  3.92469207E-02 *ENERGY(eV):   28.559822    
@ STATE NO:    6 *TRANSITION MOMENT:  1.12752589E-16 *ENERGY(eV):   30.670942    
@ STATE NO:    7 *TRANSITION MOMENT: -2.63120965E-16 *ENERGY(eV):   31.532928    
@ STATE NO:    8 *TRANSITION MOMENT: -1.50183113E-15 *ENERGY(eV):   34.832402    
@ STATE NO:    9 *TRANSITION MOMENT:  1.24306161E-02 *ENERGY(eV):   35.357779    
@ STATE NO:   10 *TRANSITION MOMENT: -4.67816032E-02 *ENERGY(eV):   36.322578    
@ STATE NO:   11 *TRANSITION MOMENT: -6.18294161E-16 *ENERGY(eV):   36.808342    
@ STATE NO:   12 *TRANSITION MOMENT:  3.67787767E-16 *ENERGY(eV):   38.184549    
@ STATE NO:   13 *TRANSITION MOMENT: -1.39048362E-15 *ENERGY(eV):   41.371927    
@ STATE NO:   14 *TRANSITION MOMENT: -2.56016546E-02 *ENERGY(eV):   42.711556    
@ STATE NO:   15 *TRANSITION MOMENT:  3.26996966E-03 *ENERGY(eV):   54.319280    

@ Singlet transition operator label: YDIPLEN 
@ STATE NO:    1 *TRANSITION MOMENT:  1.27320792E-15 *ENERGY(eV):   12.288756    
@ STATE NO:    2 *TRANSITION MOMENT: -5.89660875E-16 *ENERGY(eV):   14.590558    
@ STATE NO:    3 *TRANSITION MOMENT:  1.85621252E-14 *ENERGY(eV):   16.246129    
@ STATE NO:    4 *TRANSITION MOMENT:  0.93360619     *ENERGY(eV):   18.579616    
@ STATE NO:    5 *TRANSITION MOMENT: -1.26474999E-15 *ENERGY(eV):   28.559822    
@ STATE NO:    6 *TRANSITION MOMENT:  5.45369684E-16 *ENERGY(eV):   30.670942    
@ STATE NO:    7 *TRANSITION MOMENT:  2.87062658E-16 *ENERGY(eV):   31.532928    
@ STATE NO:    8 *TRANSITION MOMENT:  8.61142096E-02 *ENERGY(eV):   34.832402    
@ STATE NO:    9 *TRANSITION MOMENT: -4.69192645E-16 *ENERGY(eV):   35.357779    
@ STATE NO:   10 *TRANSITION MOMENT: -3.21112649E-15 *ENERGY(eV):   36.322578    
@ STATE NO:   11 *TRANSITION MOMENT: -3.86836274E-16 *ENERGY(eV):   36.808342    
@ STATE NO:   12 *TRANSITION MOMENT: -1.79472226E-16 *ENERGY(eV):   38.184549    
@ STATE NO:   13 *TRANSITION MOMENT: -6.12473900E-03 *ENERGY(eV):   41.371927    
@ STATE NO:   14 *TRANSITION MOMENT: -2.09334392E-15 *ENERGY(eV):   42.711556    
@ STATE NO:   15 *TRANSITION MOMENT:  3.87037522E-16 *ENERGY(eV):   54.319280    

@ Singlet transition operator label: ZDIPLEN 
@ STATE NO:    1 *TRANSITION MOMENT: -0.10098762     *ENERGY(eV):   12.288756    
@ STATE NO:    2 *TRANSITION MOMENT: -3.04226513E-15 *ENERGY(eV):   14.590558    
@ STATE NO:    3 *TRANSITION MOMENT: -2.27339697E-16 *ENERGY(eV):   16.246129    
@ STATE NO:    4 *TRANSITION MOMENT:  1.13650935E-15 *ENERGY(eV):   18.579616    
@ STATE NO:    5 *TRANSITION MOMENT:  9.17945336E-17 *ENERGY(eV):   28.559822    
@ STATE NO:    6 *TRANSITION MOMENT: -1.15672911E-02 *ENERGY(eV):   30.670942    
@ STATE NO:    7 *TRANSITION MOMENT:  3.55308047E-16 *ENERGY(eV):   31.532928    
@ STATE NO:    8 *TRANSITION MOMENT:  3.54902241E-16 *ENERGY(eV):   34.832402    
@ STATE NO:    9 *TRANSITION MOMENT:  7.00609224E-17 *ENERGY(eV):   35.357779    
@ STATE NO:   10 *TRANSITION MOMENT: -7.99629021E-17 *ENERGY(eV):   36.322578    
@ STATE NO:   11 *TRANSITION MOMENT: -1.57662252E-15 *ENERGY(eV):   36.808342    
@ STATE NO:   12 *TRANSITION MOMENT: -3.07641951E-02 *ENERGY(eV):   38.184549    
@ STATE NO:   13 *TRANSITION MOMENT: -7.64883033E-18 *ENERGY(eV):   41.371927    
@ STATE NO:   14 *TRANSITION MOMENT: -4.52613859E-16 *ENERGY(eV):   42.711556    
@ STATE NO:   15 *TRANSITION MOMENT: -4.73979743E-17 *ENERGY(eV):   54.319280    


 **************************************************************************************
 *** @ Excit. operator sym 1 & ref. state sym 1 => excited state symmetry 1  ( A  ) ***
 **************************************************************************************



 @ Excited state no:    1 in symmetry 1  ( A  ) - singlet excitation
 -------------------------------------------------------------------

@ Excitation energy :  0.45160349     au
@                       12.288756     eV;   99115.509     cm-1;   1185.6848     kJ / mol

@ Total energy :       -74.518387     au

@ Operator label: XDIPLEN ; Transition moment :  1.58175458E-16 au
@ Oscillator strength (LENGTH)   :  7.53258841E-33  (X-polarization)

@ Operator label: YDIPLEN ; Transition moment :  1.27320792E-15 au
@ Oscillator strength (LENGTH)   :  4.88050427E-31  (Y-polarization)

@ Operator label: ZDIPLEN ; Transition moment : -0.10098762     au
@ Oscillator strength (LENGTH)   :  3.07045193E-03  (Z-polarization)
@ Total oscillator strength (LENGTH)   :  3.07045193E-03

 Eigenvector for state no.  1

      Index(conf)                         Z operator          Y operator
      ----------                      --------------      --------------
           7                           -0.9939644317        0.0000000000

       19 elements with absolute value ≤ 1.00D-01 are not printed.

 Printout of coefficients in interval  3.1623E-01 to  1.0000E+00
 ===============================================================

  Coefficient of CSF no.         7 is     -0.99396443   -9.93964432E-01
  Orbital          1   2   3
  Spin coupling    2   1  -1

 Printout of coefficients in interval  1.0000E-01 to  3.1623E-01
 ===============================================================
   ( no coefficients )

 Norm of printed CI vector ..      0.98796529

 Magnitude of CI coefficients
 ============================
 ( Ranges are relative to norm of vector :  1.00E+00 )

  10- 1 to 10- 0         1    0.98796529E+00      0.9879652914
  10- 2 to 10- 1         3    0.12034709E-01      1.0000000000
  Number of coefficients less than 10^-11 times norm is           16


 @ Excited state no:    2 in symmetry 1  ( A  ) - singlet excitation
 -------------------------------------------------------------------

@ Excitation energy :  0.53619315     au
@                       14.590558     eV;   117680.79     cm-1;   1407.7749     kJ / mol

@ Total energy :       -74.433798     au

@ Operator label: XDIPLEN ; Transition moment : -5.82251272E-15 au
@ Oscillator strength (LENGTH)   :  1.21185565E-29  (X-polarization)

@ Operator label: YDIPLEN ; Transition moment : -5.89660875E-16 au
@ Oscillator strength (LENGTH)   :  1.24289553E-31  (Y-polarization)

@ Operator label: ZDIPLEN ; Transition moment : -3.04226513E-15 au
@ Oscillator strength (LENGTH)   :  3.30844651E-30  (Z-polarization)
@ Total oscillator strength (LENGTH)   :  1.55512925E-29

 Eigenvector for state no.  2

      Index(conf)                         Z operator          Y operator
      ----------                      --------------      --------------
           8                            0.9924505651        0.0000000000
          20                            0.1132903400        0.0000000000

       18 elements with absolute value ≤ 1.00D-01 are not printed.

 Printout of coefficients in interval  3.1623E-01 to  1.0000E+00
 ===============================================================

  Coefficient of CSF no.         8 is      0.99245057    9.92450565E-01
  Orbital          1   2   4
  Spin coupling    2   1  -1

 Printout of coefficients in interval  1.0000E-01 to  3.1623E-01
 ===============================================================

  Coefficient of CSF no.        20 is      0.11329034    1.13290340E-01
  Orbital          1   2   3   4
  Spin coupling    1  -1   1  -1

 Norm of printed CI vector ..      0.99779283

 Magnitude of CI coefficients
 ============================
 ( Ranges are relative to norm of vector :  1.00E+00 )

  10- 1 to 10- 0         2    0.99779283E+00      0.9977928253
  10- 2 to 10- 1         2    0.22071747E-02      1.0000000000
  Number of coefficients less than 10^-11 times norm is           16


 @ Excited state no:    3 in symmetry 1  ( A  ) - singlet excitation
 -------------------------------------------------------------------

@ Excitation energy :  0.59703426     au
@                       16.246129     eV;   131033.87     cm-1;   1567.5132     kJ / mol

@ Total energy :       -74.372957     au

@ Operator label: XDIPLEN ; Transition moment : -0.62591056     au
@ Oscillator strength (LENGTH)   :  0.15593103      (X-polarization)

@ Operator label: YDIPLEN ; Transition moment :  1.85621252E-14 au
@ Oscillator strength (LENGTH)   :  1.37139761E-28  (Y-polarization)

@ Operator label: ZDIPLEN ; Transition moment : -2.27339697E-16 au
@ Oscillator strength (LENGTH)   :  2.05711490E-32  (Z-polarization)
@ Total oscillator strength (LENGTH)   :  0.15593103    

 Eigenvector for state no.  3

      Index(conf)                         Z operator          Y operator
      ----------                      --------------      --------------
           3                           -0.1250725266        0.0000000000
          10                            0.9887249391        0.0000000000

       18 elements with absolute value ≤ 1.00D-01 are not printed.

 Printout of coefficients in interval  3.1623E-01 to  1.0000E+00
 ===============================================================

  Coefficient of CSF no.        10 is      0.98872494    9.88724939E-01
  Orbital          2   1   3
  Spin coupling    2   1  -1

 Printout of coefficients in interval  1.0000E-01 to  3.1623E-01
 ===============================================================

  Coefficient of CSF no.         3 is     -0.12507253   -1.25072527E-01
  Orbital          2   3
  Spin coupling    2   2

 Norm of printed CI vector ..      0.99322014

 Magnitude of CI coefficients
 ============================
 ( Ranges are relative to norm of vector :  1.00E+00 )

  10- 1 to 10- 0         2    0.99322014E+00      0.9932201420
  10- 2 to 10- 1         4    0.67044986E-02      0.9999246406
  10- 3 to 10- 2         2    0.75359363E-04      1.0000000000
  Number of coefficients less than 10^-11 times norm is           12


 @ Excited state no:    4 in symmetry 1  ( A  ) - singlet excitation
 -------------------------------------------------------------------

@ Excitation energy :  0.68278836     au
@                       18.579616     eV;   149854.72     cm-1;   1792.6606     kJ / mol

@ Total energy :       -74.287203     au

@ Operator label: XDIPLEN ; Transition moment :  4.18239944E-15 au
@ Oscillator strength (LENGTH)   :  7.96243438E-30  (X-polarization)

@ Operator label: YDIPLEN ; Transition moment :  0.93360619     au
@ Oscillator strength (LENGTH)   :  0.39675490      (Y-polarization)

@ Operator label: ZDIPLEN ; Transition moment :  1.13650935E-15 au
@ Oscillator strength (LENGTH)   :  5.87950655E-31  (Z-polarization)
@ Total oscillator strength (LENGTH)   :  0.39675490    

 Eigenvector for state no.  4

      Index(conf)                         Z operator          Y operator
      ----------                      --------------      --------------
          11                            0.9854680718        0.0000000000
          12                           -0.1668633945        0.0000000000

       18 elements with absolute value ≤ 1.00D-01 are not printed.

 Printout of coefficients in interval  3.1623E-01 to  1.0000E+00
 ===============================================================

  Coefficient of CSF no.        11 is      0.98546807    9.85468072E-01
  Orbital          2   1   4
  Spin coupling    2   1  -1

 Printout of coefficients in interval  1.0000E-01 to  3.1623E-01
 ===============================================================

  Coefficient of CSF no.        12 is     -0.16686339   -1.66863394E-01
  Orbital          2   3   4
  Spin coupling    2   1  -1

 Norm of printed CI vector ..      0.99899071

 Magnitude of CI coefficients
 ============================
 ( Ranges are relative to norm of vector :  1.00E+00 )

  10- 1 to 10- 0         2    0.99899071E+00      0.9989907130
  10- 2 to 10- 1         2    0.10092870E-02      1.0000000000
  Number of coefficients less than 10^-11 times norm is           16


 @ Excited state no:    5 in symmetry 1  ( A  ) - singlet excitation
 -------------------------------------------------------------------

@ Excitation energy :   1.0495542     au
@                       28.559822     eV;   230350.52     cm-1;   2755.6041     kJ / mol

@ Total energy :       -73.920437     au

@ Operator label: XDIPLEN ; Transition moment :  3.92469207E-02 au
@ Oscillator strength (LENGTH)   :  1.07776676E-03  (X-polarization)

@ Operator label: YDIPLEN ; Transition moment : -1.26474999E-15 au
@ Oscillator strength (LENGTH)   :  1.11923937E-30  (Y-polarization)

@ Operator label: ZDIPLEN ; Transition moment :  9.17945336E-17 au
@ Oscillator strength (LENGTH)   :  5.89586117E-33  (Z-polarization)
@ Total oscillator strength (LENGTH)   :  1.07776676E-03

 Eigenvector for state no.  5

      Index(conf)                         Z operator          Y operator
      ----------                      --------------      --------------
           2                            0.8244205540        0.0000000000
           3                           -0.1824008048        0.0000000000
           4                           -0.5000735734        0.0000000000
           5                            0.1239121490        0.0000000000
          17                            0.1424643177        0.0000000000

       15 elements with absolute value ≤ 1.00D-01 are not printed.

 Printout of coefficients in interval  3.1623E-01 to  1.0000E+00
 ===============================================================

  Coefficient of CSF no.         2 is      0.82442055    8.24420554E-01
  Orbital          1   3
  Spin coupling    2   2

  Coefficient of CSF no.         4 is     -0.50007357   -5.00073573E-01
  Orbital          1   4
  Spin coupling    2   2

 Printout of coefficients in interval  1.0000E-01 to  3.1623E-01
 ===============================================================

  Coefficient of CSF no.         3 is     -0.18240080   -1.82400805E-01
  Orbital          2   3
  Spin coupling    2   2

  Coefficient of CSF no.         5 is      0.12391215    1.23912149E-01
  Orbital          2   4
  Spin coupling    2   2

  Coefficient of CSF no.        17 is      0.14246432    1.42464318E-01
  Orbital          4   1   3
  Spin coupling    2   1  -1

 Norm of printed CI vector ..      0.99866318

 Magnitude of CI coefficients
 ============================
 ( Ranges are relative to norm of vector :  1.00E+00 )

  10- 1 to 10- 0         5    0.99866318E+00      0.9986631848
  10- 2 to 10- 1         3    0.13368152E-02      1.0000000000
  Number of coefficients less than 10^-11 times norm is           12


 @ Excited state no:    6 in symmetry 1  ( A  ) - singlet excitation
 -------------------------------------------------------------------

@ Excitation energy :   1.1271364     au
@                       30.670942     eV;   247377.85     cm-1;   2959.2962     kJ / mol

@ Total energy :       -73.842855     au

@ Operator label: XDIPLEN ; Transition moment :  1.12752589E-16 au
@ Oscillator strength (LENGTH)   :  9.55296672E-33  (X-polarization)

@ Operator label: YDIPLEN ; Transition moment :  5.45369684E-16 au
@ Oscillator strength (LENGTH)   :  2.23494688E-31  (Y-polarization)

@ Operator label: ZDIPLEN ; Transition moment : -1.15672911E-02 au
@ Oscillator strength (LENGTH)   :  1.00542238E-04  (Z-polarization)
@ Total oscillator strength (LENGTH)   :  1.00542238E-04

 Eigenvector for state no.  6

      Index(conf)                         Z operator          Y operator
      ----------                      --------------      --------------
          13                            0.8252262471        0.0000000000
          16                           -0.5532940503        0.0000000000
          18                            0.1092067106        0.0000000000

       17 elements with absolute value ≤ 1.00D-01 are not printed.

 Printout of coefficients in interval  3.1623E-01 to  1.0000E+00
 ===============================================================

  Coefficient of CSF no.        13 is      0.82522625    8.25226247E-01
  Orbital          3   1   2
  Spin coupling    2   1  -1

  Coefficient of CSF no.        16 is     -0.55329405   -5.53294050E-01
  Orbital          4   1   2
  Spin coupling    2   1  -1

 Printout of coefficients in interval  1.0000E-01 to  3.1623E-01
 ===============================================================

  Coefficient of CSF no.        18 is      0.10920671    1.09206711E-01
  Orbital          4   2   3
  Spin coupling    2   1  -1

 Norm of printed CI vector ..      0.99905877

 Magnitude of CI coefficients
 ============================
 ( Ranges are relative to norm of vector :  1.00E+00 )

  10- 1 to 10- 0         3    0.99905877E+00      0.9990587707
  10- 2 to 10- 1         1    0.94122933E-03      1.0000000000
  Number of coefficients less than 10^-11 times norm is           16


 @ Excited state no:    7 in symmetry 1  ( A  ) - singlet excitation
 -------------------------------------------------------------------

@ Excitation energy :   1.1588138     au
@                       31.532928     eV;   254330.23     cm-1;   3042.4652     kJ / mol

@ Total energy :       -73.811177     au

@ Operator label: XDIPLEN ; Transition moment : -2.63120965E-16 au
@ Oscillator strength (LENGTH)   :  5.34851609E-32  (X-polarization)

@ Operator label: YDIPLEN ; Transition moment :  2.87062658E-16 au
@ Oscillator strength (LENGTH)   :  6.36613440E-32  (Y-polarization)

@ Operator label: ZDIPLEN ; Transition moment :  3.55308047E-16 au
@ Oscillator strength (LENGTH)   :  9.75287114E-32  (Z-polarization)
@ Total oscillator strength (LENGTH)   :  2.14675216E-31

 Eigenvector for state no.  7

      Index(conf)                         Z operator          Y operator
      ----------                      --------------      --------------
          15                            0.2075150239        0.0000000000
          19                            0.9753805345        0.0000000000

       18 elements with absolute value ≤ 1.00D-01 are not printed.

 Printout of coefficients in interval  3.1623E-01 to  1.0000E+00
 ===============================================================

  Coefficient of CSF no.        19 is      0.97538053    9.75380534E-01
  Orbital          1   2   3   4
  Spin coupling    1   1  -1  -1

 Printout of coefficients in interval  1.0000E-01 to  3.1623E-01
 ===============================================================

  Coefficient of CSF no.        15 is      0.20751502    2.07515024E-01
  Orbital          3   2   4
  Spin coupling    2   1  -1

 Norm of printed CI vector ..      0.99442967

 Magnitude of CI coefficients
 ============================
 ( Ranges are relative to norm of vector :  1.00E+00 )

  10- 1 to 10- 0         2    0.99442967E+00      0.9944296722
  10- 2 to 10- 1         2    0.55703278E-02      1.0000000000
  Number of coefficients less than 10^-11 times norm is           16


 @ Excited state no:    8 in symmetry 1  ( A  ) - singlet excitation
 -------------------------------------------------------------------

@ Excitation energy :   1.2800672     au
@                       34.832402     eV;   280942.29     cm-1;   3360.8160     kJ / mol

@ Total energy :       -73.689924     au

@ Operator label: XDIPLEN ; Transition moment : -1.50183113E-15 au
@ Oscillator strength (LENGTH)   :  1.92479167E-30  (X-polarization)

@ Operator label: YDIPLEN ; Transition moment :  8.61142096E-02 au
@ Oscillator strength (LENGTH)   :  6.32835985E-03  (Y-polarization)

@ Operator label: ZDIPLEN ; Transition moment :  3.54902241E-16 au
@ Oscillator strength (LENGTH)   :  1.07487760E-31  (Z-polarization)
@ Total oscillator strength (LENGTH)   :  6.32835985E-03

 Eigenvector for state no.  8

      Index(conf)                         Z operator          Y operator
      ----------                      --------------      --------------
           9                           -0.9719483435        0.0000000000
          12                            0.2246496879        0.0000000000

       18 elements with absolute value ≤ 1.00D-01 are not printed.

 Printout of coefficients in interval  3.1623E-01 to  1.0000E+00
 ===============================================================

  Coefficient of CSF no.         9 is     -0.97194834   -9.71948344E-01
  Orbital          1   3   4
  Spin coupling    2   1  -1

 Printout of coefficients in interval  1.0000E-01 to  3.1623E-01
 ===============================================================

  Coefficient of CSF no.        12 is      0.22464969    2.24649688E-01
  Orbital          2   3   4
  Spin coupling    2   1  -1

 Norm of printed CI vector ..      0.99515106

 Magnitude of CI coefficients
 ============================
 ( Ranges are relative to norm of vector :  1.00E+00 )

  10- 1 to 10- 0         2    0.99515106E+00      0.9951510648
  10- 2 to 10- 1         2    0.48489352E-02      1.0000000000
  Number of coefficients less than 10^-11 times norm is           16


 @ Excited state no:    9 in symmetry 1  ( A  ) - singlet excitation
 -------------------------------------------------------------------

@ Excitation energy :   1.2993745     au
@                       35.357779     eV;   285179.74     cm-1;   3411.5072     kJ / mol

@ Total energy :       -73.670616     au

@ Operator label: XDIPLEN ; Transition moment :  1.24306161E-02 au
@ Oscillator strength (LENGTH)   :  1.33853088E-04  (X-polarization)

@ Operator label: YDIPLEN ; Transition moment : -4.69192645E-16 au
@ Oscillator strength (LENGTH)   :  1.90697708E-31  (Y-polarization)

@ Operator label: ZDIPLEN ; Transition moment :  7.00609224E-17 au
@ Oscillator strength (LENGTH)   :  4.25201497E-33  (Z-polarization)
@ Total oscillator strength (LENGTH)   :  1.33853088E-04

 Eigenvector for state no.  9

      Index(conf)                         Z operator          Y operator
      ----------                      --------------      --------------
           2                            0.2477684065        0.0000000000
           3                            0.7550837424        0.0000000000
           5                           -0.6039071208        0.0000000000

       17 elements with absolute value ≤ 1.00D-01 are not printed.

 Printout of coefficients in interval  3.1623E-01 to  1.0000E+00
 ===============================================================

  Coefficient of CSF no.         3 is      0.75508374    7.55083742E-01
  Orbital          2   3
  Spin coupling    2   2

  Coefficient of CSF no.         5 is     -0.60390712   -6.03907121E-01
  Orbital          2   4
  Spin coupling    2   2

 Printout of coefficients in interval  1.0000E-01 to  3.1623E-01
 ===============================================================

  Coefficient of CSF no.         2 is      0.24776841    2.47768407E-01
  Orbital          1   3
  Spin coupling    2   2

 Norm of printed CI vector ..      0.99624445

 Magnitude of CI coefficients
 ============================
 ( Ranges are relative to norm of vector :  1.00E+00 )

  10- 1 to 10- 0         3    0.99624445E+00      0.9962444518
  10- 2 to 10- 1         4    0.36958969E-02      0.9999403487
  10- 3 to 10- 2         1    0.59651253E-04      1.0000000000
  Number of coefficients less than 10^-11 times norm is           12


 @ Excited state no:   10 in symmetry 1  ( A  ) - singlet excitation
 -------------------------------------------------------------------

@ Excitation energy :   1.3348302     au
@                       36.322578     eV;   292961.37     cm-1;   3504.5962     kJ / mol

@ Total energy :       -73.635161     au

@ Operator label: XDIPLEN ; Transition moment : -4.67816032E-02 au
@ Oscillator strength (LENGTH)   :  1.94753368E-03  (X-polarization)

@ Operator label: YDIPLEN ; Transition moment : -3.21112649E-15 au
@ Oscillator strength (LENGTH)   :  9.17591964E-30  (Y-polarization)

@ Operator label: ZDIPLEN ; Transition moment : -7.99629021E-17 au
@ Oscillator strength (LENGTH)   :  5.68999479E-33  (Z-polarization)
@ Total oscillator strength (LENGTH)   :  1.94753368E-03

 Eigenvector for state no. 10

      Index(conf)                         Z operator          Y operator
      ----------                      --------------      --------------
           2                           -0.4814262013        0.0000000000
           3                            0.2323522329        0.0000000000
           4                           -0.8309759081        0.0000000000
           5                            0.1111106360        0.0000000000

       16 elements with absolute value ≤ 1.00D-01 are not printed.

 Printout of coefficients in interval  3.1623E-01 to  1.0000E+00
 ===============================================================

  Coefficient of CSF no.         2 is     -0.48142620   -4.81426201E-01
  Orbital          1   3
  Spin coupling    2   2

  Coefficient of CSF no.         4 is     -0.83097591   -8.30975908E-01
  Orbital          1   4
  Spin coupling    2   2

 Printout of coefficients in interval  1.0000E-01 to  3.1623E-01
 ===============================================================

  Coefficient of CSF no.         3 is      0.23235223    2.32352233E-01
  Orbital          2   3
  Spin coupling    2   2

  Coefficient of CSF no.         5 is      0.11111064    1.11110636E-01
  Orbital          2   4
  Spin coupling    2   2

 Norm of printed CI vector ..      0.98862528

 Magnitude of CI coefficients
 ============================
 ( Ranges are relative to norm of vector :  1.00E+00 )

  10- 1 to 10- 0         4    0.98862528E+00      0.9886252807
  10- 2 to 10- 1         4    0.11374719E-01      1.0000000000
  Number of coefficients less than 10^-11 times norm is           12


 @ Excited state no:   11 in symmetry 1  ( A  ) - singlet excitation
 -------------------------------------------------------------------

@ Excitation energy :   1.3526817     au
@                       36.808342     eV;   296879.32     cm-1;   3551.4653     kJ / mol

@ Total energy :       -73.617309     au

@ Operator label: XDIPLEN ; Transition moment : -6.18294161E-16 au
@ Oscillator strength (LENGTH)   :  3.44742364E-31  (X-polarization)

@ Operator label: YDIPLEN ; Transition moment : -3.86836274E-16 au
@ Oscillator strength (LENGTH)   :  1.34945606E-31  (Y-polarization)

@ Operator label: ZDIPLEN ; Transition moment : -1.57662252E-15 au
@ Oscillator strength (LENGTH)   :  2.24160876E-30  (Z-polarization)
@ Total oscillator strength (LENGTH)   :  2.72129673E-30

 Eigenvector for state no. 11

      Index(conf)                         Z operator          Y operator
      ----------                      --------------      --------------
           8                           -0.1100387556        0.0000000000
          20                            0.9902815013        0.0000000000

       18 elements with absolute value ≤ 1.00D-01 are not printed.

 Printout of coefficients in interval  3.1623E-01 to  1.0000E+00
 ===============================================================

  Coefficient of CSF no.        20 is      0.99028150    9.90281501E-01
  Orbital          1   2   3   4
  Spin coupling    1  -1   1  -1

 Printout of coefficients in interval  1.0000E-01 to  3.1623E-01
 ===============================================================

  Coefficient of CSF no.         8 is     -0.11003876   -1.10038756E-01
  Orbital          1   2   4
  Spin coupling    2   1  -1

 Norm of printed CI vector ..      0.99276598

 Magnitude of CI coefficients
 ============================
 ( Ranges are relative to norm of vector :  1.00E+00 )

  10- 1 to 10- 0         2    0.99276598E+00      0.9927659796
  10- 2 to 10- 1         2    0.72340204E-02      1.0000000000
  Number of coefficients less than 10^-11 times norm is           16


 @ Excited state no:   12 in symmetry 1  ( A  ) - singlet excitation
 -------------------------------------------------------------------

@ Excitation energy :   1.4032564     au
@                       38.184549     eV;   307979.18     cm-1;   3684.2491     kJ / mol

@ Total energy :       -73.566735     au

@ Operator label: XDIPLEN ; Transition moment :  3.67787767E-16 au
@ Oscillator strength (LENGTH)   :  1.26543642E-31  (X-polarization)

@ Operator label: YDIPLEN ; Transition moment : -1.79472226E-16 au
@ Oscillator strength (LENGTH)   :  3.01328543E-32  (Y-polarization)

@ Operator label: ZDIPLEN ; Transition moment : -3.07641951E-02 au
@ Oscillator strength (LENGTH)   :  8.85394633E-04  (Z-polarization)
@ Total oscillator strength (LENGTH)   :  8.85394633E-04

 Eigenvector for state no. 12

      Index(conf)                         Z operator          Y operator
      ----------                      --------------      --------------
          13                            0.5562408701        0.0000000000
          16                            0.8230186182        0.0000000000

       18 elements with absolute value ≤ 1.00D-01 are not printed.

 Printout of coefficients in interval  3.1623E-01 to  1.0000E+00
 ===============================================================

  Coefficient of CSF no.        13 is      0.55624087    5.56240870E-01
  Orbital          3   1   2
  Spin coupling    2   1  -1

  Coefficient of CSF no.        16 is      0.82301862    8.23018618E-01
  Orbital          4   1   2
  Spin coupling    2   1  -1

 Printout of coefficients in interval  1.0000E-01 to  3.1623E-01
 ===============================================================
   ( no coefficients )

 Norm of printed CI vector ..      0.98676355

 Magnitude of CI coefficients
 ============================
 ( Ranges are relative to norm of vector :  1.00E+00 )

  10- 1 to 10- 0         2    0.98676355E+00      0.9867635515
  10- 2 to 10- 1         2    0.13236448E-01      1.0000000000
  Number of coefficients less than 10^-11 times norm is           16


 @ Excited state no:   13 in symmetry 1  ( A  ) - singlet excitation
 -------------------------------------------------------------------

@ Excitation energy :   1.5203904     au
@                       41.371927     eV;   333687.12     cm-1;   3991.7843     kJ / mol

@ Total energy :       -73.449601     au

@ Operator label: XDIPLEN ; Transition moment : -1.39048362E-15 au
@ Oscillator strength (LENGTH)   :  1.95972716E-30  (X-polarization)

@ Operator label: YDIPLEN ; Transition moment : -6.12473900E-03 au
@ Oscillator strength (LENGTH)   :  3.80223564E-05  (Y-polarization)

@ Operator label: ZDIPLEN ; Transition moment : -7.64883033E-18 au
@ Oscillator strength (LENGTH)   :  5.92998930E-35  (Z-polarization)
@ Total oscillator strength (LENGTH)   :  3.80223564E-05

 Eigenvector for state no. 13

      Index(conf)                         Z operator          Y operator
      ----------                      --------------      --------------
           9                           -0.2300581318        0.0000000000
          11                           -0.1592438941        0.0000000000
          12                           -0.9600459466        0.0000000000

       17 elements with absolute value ≤ 1.00D-01 are not printed.

 Printout of coefficients in interval  3.1623E-01 to  1.0000E+00
 ===============================================================

  Coefficient of CSF no.        12 is     -0.96004595   -9.60045947E-01
  Orbital          2   3   4
  Spin coupling    2   1  -1

 Printout of coefficients in interval  1.0000E-01 to  3.1623E-01
 ===============================================================

  Coefficient of CSF no.         9 is     -0.23005813   -2.30058132E-01
  Orbital          1   3   4
  Spin coupling    2   1  -1

  Coefficient of CSF no.        11 is     -0.15924389   -1.59243894E-01
  Orbital          2   1   4
  Spin coupling    2   1  -1

 Printout of coefficients in interval  1.0000E-01 to  1.0000E-01
 ===============================================================
   ( no coefficients )

 Norm of printed CI vector ..      0.99997358

 Magnitude of CI coefficients
 ============================
 ( Ranges are relative to norm of vector :  1.00E+00 )

  10- 1 to 10- 0         3    0.99997358E+00      0.9999735814
  10- 3 to 10- 2         1    0.26418623E-04      1.0000000000
  Number of coefficients less than 10^-11 times norm is           16


 @ Excited state no:   14 in symmetry 1  ( A  ) - singlet excitation
 -------------------------------------------------------------------

@ Excitation energy :   1.5696208     au
@                       42.711556     eV;   344491.95     cm-1;   4121.0389     kJ / mol

@ Total energy :       -73.400370     au

@ Operator label: XDIPLEN ; Transition moment : -2.56016546E-02 au
@ Oscillator strength (LENGTH)   :  6.85866458E-04  (X-polarization)

@ Operator label: YDIPLEN ; Transition moment : -2.09334392E-15 au
@ Oscillator strength (LENGTH)   :  4.58547858E-30  (Y-polarization)

@ Operator label: ZDIPLEN ; Transition moment : -4.52613859E-16 au
@ Oscillator strength (LENGTH)   :  2.14367624E-31  (Z-polarization)
@ Total oscillator strength (LENGTH)   :  6.85866458E-04

 Eigenvector for state no. 14

      Index(conf)                         Z operator          Y operator
      ----------                      --------------      --------------
           2                           -0.1285374338        0.0000000000
           3                           -0.5693623056        0.0000000000
           4                           -0.1914897690        0.0000000000
           5                           -0.7740821919        0.0000000000
          10                           -0.1297765530        0.0000000000

       15 elements with absolute value ≤ 1.00D-01 are not printed.

 Printout of coefficients in interval  3.1623E-01 to  1.0000E+00
 ===============================================================

  Coefficient of CSF no.         3 is     -0.56936231   -5.69362306E-01
  Orbital          2   3
  Spin coupling    2   2

  Coefficient of CSF no.         5 is     -0.77408219   -7.74082192E-01
  Orbital          2   4
  Spin coupling    2   2

 Printout of coefficients in interval  1.0000E-01 to  3.1623E-01
 ===============================================================

  Coefficient of CSF no.         2 is     -0.12853743   -1.28537434E-01
  Orbital          1   3
  Spin coupling    2   2

  Coefficient of CSF no.         4 is     -0.19148977   -1.91489769E-01
  Orbital          1   4
  Spin coupling    2   2

  Coefficient of CSF no.        10 is     -0.12977655   -1.29776553E-01
  Orbital          2   1   3
  Spin coupling    2   1  -1

 Norm of printed CI vector ..      0.99340883

 Magnitude of CI coefficients
 ============================
 ( Ranges are relative to norm of vector :  1.00E+00 )

  10- 1 to 10- 0         5    0.99340883E+00      0.9934088321
  10- 2 to 10- 1         3    0.65911679E-02      1.0000000000
  Number of coefficients less than 10^-11 times norm is           12


 @ Excited state no:   15 in symmetry 1  ( A  ) - singlet excitation
 -------------------------------------------------------------------

@ Excitation energy :   1.9961969     au
@                       54.319280     eV;   438114.57     cm-1;   5241.0140     kJ / mol

@ Total energy :       -72.973794     au

@ Operator label: XDIPLEN ; Transition moment :  3.26996966E-03 au
@ Oscillator strength (LENGTH)   :  1.42298249E-05  (X-polarization)

@ Operator label: YDIPLEN ; Transition moment :  3.87037522E-16 au
@ Oscillator strength (LENGTH)   :  1.99350922E-31  (Y-polarization)

@ Operator label: ZDIPLEN ; Transition moment : -4.73979743E-17 au
@ Oscillator strength (LENGTH)   :  2.98972794E-33  (Z-polarization)
@ Total oscillator strength (LENGTH)   :  1.42298249E-05

 Eigenvector for state no. 15

      Index(conf)                         Z operator          Y operator
      ----------                      --------------      --------------
           4                           -0.1363773604        0.0000000000
           6                            0.2504693297        0.0000000000
          17                           -0.9535988326        0.0000000000

       17 elements with absolute value ≤ 1.00D-01 are not printed.

 Printout of coefficients in interval  3.1623E-01 to  1.0000E+00
 ===============================================================

  Coefficient of CSF no.        17 is     -0.95359883   -9.53598833E-01
  Orbital          4   1   3
  Spin coupling    2   1  -1

 Printout of coefficients in interval  1.0000E-01 to  3.1623E-01
 ===============================================================

  Coefficient of CSF no.         4 is     -0.13637736   -1.36377360E-01
  Orbital          1   4
  Spin coupling    2   2

  Coefficient of CSF no.         6 is      0.25046933    2.50469330E-01
  Orbital          3   4
  Spin coupling    2   2

 Norm of printed CI vector ..      0.99068440

 Magnitude of CI coefficients
 ============================
 ( Ranges are relative to norm of vector :  1.00E+00 )

  10- 1 to 10- 0         3    0.99068440E+00      0.9906844030
  10- 2 to 10- 1         3    0.93074774E-02      0.9999918804
  10- 3 to 10- 2         1    0.75672351E-05      0.9999994477
  10- 4 to 10- 3         1    0.55231948E-06      1.0000000000
  Number of coefficients less than 10^-11 times norm is           12

@ Singlet transition operator label: XDIPLEN 
@ STATE NO:   16 *TRANSITION MOMENT:  3.52767610E-16 *ENERGY(eV):   54.699478    
@ STATE NO:   17 *TRANSITION MOMENT: -7.26767607E-17 *ENERGY(eV):   56.724727    
@ STATE NO:   18 *TRANSITION MOMENT:  4.26521189E-18 *ENERGY(eV):   56.754740    
@ STATE NO:   19 *TRANSITION MOMENT:  4.30762972E-04 *ENERGY(eV):   81.159532    

@ Singlet transition operator label: YDIPLEN 
@ STATE NO:   16 *TRANSITION MOMENT: -4.73398778E-03 *ENERGY(eV):   54.699478    
@ STATE NO:   17 *TRANSITION MOMENT:  2.00702602E-16 *ENERGY(eV):   56.724727    
@ STATE NO:   18 *TRANSITION MOMENT: -2.38747189E-16 *ENERGY(eV):   56.754740    
@ STATE NO:   19 *TRANSITION MOMENT: -2.49409393E-17 *ENERGY(eV):   81.159532    

@ Singlet transition operator label: ZDIPLEN 
@ STATE NO:   16 *TRANSITION MOMENT: -6.13443092E-17 *ENERGY(eV):   54.699478    
@ STATE NO:   17 *TRANSITION MOMENT:  7.46926610E-16 *ENERGY(eV):   56.724727    
@ STATE NO:   18 *TRANSITION MOMENT:  9.28763010E-04 *ENERGY(eV):   56.754740    
@ STATE NO:   19 *TRANSITION MOMENT: -5.05470206E-18 *ENERGY(eV):   81.159532    


 **************************************************************************************
 *** @ Excit. operator sym 1 & ref. state sym 1 => excited state symmetry 1  ( A  ) ***
 **************************************************************************************



 @ Excited state no:   16 in symmetry 1  ( A  ) - singlet excitation
 -------------------------------------------------------------------

@ Excitation energy :   2.0101689     au
@                       54.699478     eV;   441181.08     cm-1;   5277.6976     kJ / mol

@ Total energy :       -72.959822     au

@ Operator label: XDIPLEN ; Transition moment :  3.52767610E-16 au
@ Oscillator strength (LENGTH)   :  1.66770295E-31  (X-polarization)

@ Operator label: YDIPLEN ; Transition moment : -4.73398778E-03 au
@ Oscillator strength (LENGTH)   :  3.00327815E-05  (Y-polarization)

@ Operator label: ZDIPLEN ; Transition moment : -6.13443092E-17 au
@ Oscillator strength (LENGTH)   :  5.04301026E-33  (Z-polarization)
@ Total oscillator strength (LENGTH)   :  3.00327815E-05

 Eigenvector for state no. 16

      Index(conf)                         Z operator          Y operator
      ----------                      --------------      --------------
          14                           -0.9984833626        0.0000000000

       19 elements with absolute value ≤ 1.00D-01 are not printed.

 Printout of coefficients in interval  3.1623E-01 to  1.0000E+00
 ===============================================================

  Coefficient of CSF no.        14 is     -0.99848336   -9.98483363E-01
  Orbital          3   1   4
  Spin coupling    2   1  -1

 Printout of coefficients in interval  1.0000E-01 to  3.1623E-01
 ===============================================================
   ( no coefficients )

 Norm of printed CI vector ..      0.99696903

 Magnitude of CI coefficients
 ============================
 ( Ranges are relative to norm of vector :  1.00E+00 )

  10- 1 to 10- 0         1    0.99696903E+00      0.9969690254
  10- 2 to 10- 1         2    0.30300688E-02      0.9999990942
  10- 4 to 10- 3         1    0.90575450E-06      1.0000000000
  Number of coefficients less than 10^-11 times norm is           16


 @ Excited state no:   17 in symmetry 1  ( A  ) - singlet excitation
 -------------------------------------------------------------------

@ Excitation energy :   2.0845954     au
@                       56.724727     eV;   457515.81     cm-1;   5473.1045     kJ / mol

@ Total energy :       -72.885396     au

@ Operator label: XDIPLEN ; Transition moment : -7.26767607E-17 au
@ Oscillator strength (LENGTH)   :  7.34043245E-33  (X-polarization)

@ Operator label: YDIPLEN ; Transition moment :  2.00702602E-16 au
@ Oscillator strength (LENGTH)   :  5.59804685E-32  (Y-polarization)

@ Operator label: ZDIPLEN ; Transition moment :  7.46926610E-16 au
@ Oscillator strength (LENGTH)   :  7.75329638E-31  (Z-polarization)
@ Total oscillator strength (LENGTH)   :  8.38650539E-31

 Eigenvector for state no. 17

      Index(conf)                         Z operator          Y operator
      ----------                      --------------      --------------
          15                            0.9770006605        0.0000000000
          19                           -0.2039579421        0.0000000000

       18 elements with absolute value ≤ 1.00D-01 are not printed.

 Printout of coefficients in interval  3.1623E-01 to  1.0000E+00
 ===============================================================

  Coefficient of CSF no.        15 is      0.97700066    9.77000660E-01
  Orbital          3   2   4
  Spin coupling    2   1  -1

 Printout of coefficients in interval  1.0000E-01 to  3.1623E-01
 ===============================================================

  Coefficient of CSF no.        19 is     -0.20395794   -2.03957942E-01
  Orbital          1   2   3   4
  Spin coupling    1   1  -1  -1

 Printout of coefficients in interval  1.0000E-01 to  1.0000E-01
 ===============================================================
   ( no coefficients )

 Norm of printed CI vector ..      0.99612913

 Magnitude of CI coefficients
 ============================
 ( Ranges are relative to norm of vector :  1.00E+00 )

  10- 1 to 10- 0         2    0.99612913E+00      0.9961291328
  10- 2 to 10- 1         2    0.38708672E-02      1.0000000000
  Number of coefficients less than 10^-11 times norm is           16


 @ Excited state no:   18 in symmetry 1  ( A  ) - singlet excitation
 -------------------------------------------------------------------

@ Excitation energy :   2.0856984     au
@                       56.754740     eV;   457757.88     cm-1;   5476.0002     kJ / mol

@ Total energy :       -72.884293     au

@ Operator label: XDIPLEN ; Transition moment :  4.26521189E-18 au
@ Oscillator strength (LENGTH)   :  2.52953951E-35  (X-polarization)

@ Operator label: YDIPLEN ; Transition moment : -2.38747189E-16 au
@ Oscillator strength (LENGTH)   :  7.92568447E-32  (Y-polarization)

@ Operator label: ZDIPLEN ; Transition moment :  9.28763010E-04 au
@ Oscillator strength (LENGTH)   :  1.19941663E-06  (Z-polarization)
@ Total oscillator strength (LENGTH)   :  1.19941663E-06

 Eigenvector for state no. 18

      Index(conf)                         Z operator          Y operator
      ----------                      --------------      --------------
          16                           -0.1140129398        0.0000000000
          18                           -0.9912621114        0.0000000000

       18 elements with absolute value ≤ 1.00D-01 are not printed.

 Printout of coefficients in interval  3.1623E-01 to  1.0000E+00
 ===============================================================

  Coefficient of CSF no.        18 is     -0.99126211   -9.91262111E-01
  Orbital          4   2   3
  Spin coupling    2   1  -1

 Printout of coefficients in interval  1.0000E-01 to  3.1623E-01
 ===============================================================

  Coefficient of CSF no.        16 is     -0.11401294   -1.14012940E-01
  Orbital          4   1   2
  Spin coupling    2   1  -1

 Norm of printed CI vector ..      0.99559952

 Magnitude of CI coefficients
 ============================
 ( Ranges are relative to norm of vector :  1.00E+00 )

  10- 1 to 10- 0         2    0.99559952E+00      0.9955995240
  10- 2 to 10- 1         2    0.44004760E-02      1.0000000000
  Number of coefficients less than 10^-11 times norm is           16


 @ Excited state no:   19 in symmetry 1  ( A  ) - singlet excitation
 -------------------------------------------------------------------

@ Excitation energy :   2.9825580     au
@                       81.159532     eV;   654595.81     cm-1;   7830.7048     kJ / mol

@ Total energy :       -71.987433     au

@ Operator label: XDIPLEN ; Transition moment :  4.30762972E-04 au
@ Oscillator strength (LENGTH)   :  3.68955822E-07  (X-polarization)

@ Operator label: YDIPLEN ; Transition moment : -2.49409393E-17 au
@ Oscillator strength (LENGTH)   :  1.23686771E-33  (Y-polarization)

@ Operator label: ZDIPLEN ; Transition moment : -5.05470206E-18 au
@ Oscillator strength (LENGTH)   :  5.08029302E-35  (Z-polarization)
@ Total oscillator strength (LENGTH)   :  3.68955822E-07

 Eigenvector for state no. 19

      Index(conf)                         Z operator          Y operator
      ----------                      --------------      --------------
           6                           -0.9657614920        0.0000000000
          17                           -0.2480156291        0.0000000000

       18 elements with absolute value ≤ 1.00D-01 are not printed.

 Printout of coefficients in interval  3.1623E-01 to  1.0000E+00
 ===============================================================

  Coefficient of CSF no.         6 is     -0.96576149   -9.65761492E-01
  Orbital          3   4
  Spin coupling    2   2

 Printout of coefficients in interval  1.0000E-01 to  3.1623E-01
 ===============================================================

  Coefficient of CSF no.        17 is     -0.24801563   -2.48015629E-01
  Orbital          4   1   3
  Spin coupling    2   1  -1

 Norm of printed CI vector ..      0.99420701

 Magnitude of CI coefficients
 ============================
 ( Ranges are relative to norm of vector :  1.00E+00 )

  10- 1 to 10- 0         2    0.99420701E+00      0.9942070117
  10- 2 to 10- 1         4    0.57699671E-02      0.9999769788
  10- 3 to 10- 2         2    0.23021199E-04      1.0000000000
  Number of coefficients less than 10^-11 times norm is           12


 Time used in polarization propagator calculation is      0.02 CPU seconds for symmetry 1

  Total CPU  time used in RESPONSE:   0.03 seconds
  Total wall time used in RESPONSE:   0.10 seconds


                   .-------------------------------------------.
                   | End of Dynamic Property Section (RESPONS) |
                   `-------------------------------------------'

  Total CPU  time used in DALTON:   0.16 seconds
  Total wall time used in DALTON:   1.10 seconds

 NOTE:    1 warnings have been issued.
 Check output, result, and error files for "WARNING".

 
     Date and time (Linux)  : Tue Jul  7 15:03:50 2026
     Host name              : n-62-31-23                              
