

     ************************************************************************
     *************** Dalton - An Electronic Structure Program ***************
     ************************************************************************

    This is output from DALTON release Dalton2024.0-dev (2024)
         ( Web site: http://daltonprogram.org )

   ----------------------------------------------------------------------------

    NOTE:
     
    Dalton is an experimental code for the evaluation of molecular
    properties using (MC)SCF, DFT, CI, and CC wave functions.
    The authors accept no responsibility for the performance of
    the code or for the correctness of the results.
     
    The code (in whole or part) is provided under a licence and
    is not to be reproduced for further distribution without
    the written permission of the authors or their representatives.
     
    See the home page "http://daltonprogram.org" for further information.
     
    If results obtained with this code are published,
    the appropriate citations would be both of:
     
       K. Aidas, C. Angeli, K. L. Bak, V. Bakken,
       R. Bast, L. Boman, O. Christiansen, R. Cimiraglia,
       S. Coriani, P. Dahle, E. K. Dalskov, U. Ekstroem,
       T. Enevoldsen, J. J. Eriksen, P. Ettenhuber, B. Fernandez,
       L. Ferrighi, H. Fliegl, L. Frediani, K. Hald, A. Halkier,
       C. Haettig, H. Heiberg, T. Helgaker, A. C. Hennum,
       H. Hettema, E. Hjertenaes, S. Hoest, I.-M. Hoeyvik,
       M. F. Iozzi, B. Jansik, H. J. Aa. Jensen, D. Jonsson,
       P. Joergensen, J. Kauczor, S. Kirpekar,
       T. Kjaergaard, W. Klopper, S. Knecht, R. Kobayashi, H. Koch,
       J. Kongsted, A. Krapp, K. Kristensen, A. Ligabue,
       O. B. Lutnaes, J. I. Melo, K. V. Mikkelsen, R. H. Myhre,
       C. Neiss, C. B. Nielsen, P. Norman, J. Olsen,
       J. M. H. Olsen, A. Osted, M. J. Packer, F. Pawlowski,
       T. B. Pedersen, P. F. Provasi, S. Reine, Z. Rinkevicius,
       T. A. Ruden, K. Ruud, V. Rybkin, P. Salek, C. C. M. Samson,
       A. Sanchez de Meras, T. Saue, S. P. A. Sauer,
       B. Schimmelpfennig, K. Sneskov, A. H. Steindal,
       K. O. Sylvester-Hvid, P. R. Taylor, A. M. Teale,
       E. I. Tellgren, D. P. Tew, A. J. Thorvaldsen, L. Thoegersen,
       O. Vahtras, M. A. Watson, D. J. D. Wilson, M. Ziolkowski
       and H. Agren,
       "The Dalton quantum chemistry program system",
       WIREs Comput. Mol. Sci. 2014, 4:269-284 (doi: 10.1002/wcms.1172)
     
    and
     
       Dalton, a molecular electronic structure program,
       Release Dalton2024.0-dev (2024), see http://daltonprogram.org
   ----------------------------------------------------------------------------

    Authors in alphabetical order (Major contribution(s) in parenthesis):

  Kestutis Aidas,              Vilnius University,        Lithuania   (QM/MM)
  Celestino Angeli,            University of Ferrara,     Italy       (NEVPT2)
  Juan J. Aucar,               Northeast National UniversiArgentina   (LRESC, Relativistic Effects on EFG)
  Keld L. Bak,                 UNI-C,                     Denmark     (AOSOPPA, non-adiabatic coupling, magnetic properties)
  Vebjoern Bakken,             University of Oslo,        Norway      (DALTON; geometry optimizer, symmetry detection)
  Radovan Bast,                UiT The Arctic U. of NorwayNorway      (DALTON installation and execution frameworks)
  Pablo Baudin,                University of Valencia,    Spain       (Cholesky excitation energies)
  Linus Boman,                 NTNU,                      Norway      (Cholesky decomposition and subsystems)
  Bruno N. Cabral Tenorio,     Technical Univ. of Denmark,Denmark     (Lanczos-based CC methods)
  Ove Christiansen,            Aarhus University,         Denmark     (CC module)
  Renzo Cimiraglia,            University of Ferrara,     Italy       (NEVPT2)
  Sonia Coriani,               Technical Univ. of Denmark,Denmark     (CC and RESPONS modules)
  Janusz Cukras,               University of Warsaw,      Poland      (MChD in RESPONS)
  Paal Dahle,                  University of Oslo,        Norway      (Parallelization)
  Erik K. Dalskov,             UNI-C,                     Denmark     (SOPPA)
  Thomas Enevoldsen,           Univ. of Southern Denmark, Denmark     (SOPPA)
  Janus J. Eriksen,            Aarhus University,         Denmark     (Polarizable embedding, TDA)
  Rasmus Faber,                Technical Univ. of Denmark,Denmark     (Vib.avg. NMR w. SOPPA, parallel AO-SOPPA, CVS-CC and EOMCC)
  Tobias Fahleson,             KTH Stockholm,             Sweden      (Damped cubic response)
  Berta Fernandez,             U. of Santiago de CompostelSpain       (Doublet spin, ESR in RESPONS)
  Lara Ferrighi,               Aarhus University,         Denmark     (PCM Cubic response)
  Heike Fliegl,                University of Oslo,        Norway      (CCSD(R12))
  Luca Frediani,               UiT The Arctic U. of NorwayNorway      (PCM)
  Emmanuel Fromager,           Univ. Strasbourg,          France      (MC-srDFT)
  Bin Gao,                     UiT The Arctic U. of NorwayNorway      (Gen1Int library)
  Andre S. P. Gomes,           CNRS/Universite de Lille,  France      (Frozen density embedding)
  Christof Haettig,            Ruhr-University Bochum,    Germany     (CC module)
  Kasper Hald,                 Aarhus University,         Denmark     (CC module)
  Asger Halkier,               Aarhus University,         Denmark     (CC module)
  Frederik Beyer Hansen,       University of Copenhagen,  Denmark     (Parallel AO-SOPPA)
  Erik D. Hedegaard,           Univ. of Southern Denmark, Denmark     (Polarizable embedding, QM/MM, and MC-srDFT)
  Hanne Heiberg,               University of Oslo,        Norway      (Geometry analysis, selected one-electron integrals)
  Trygve Helgaker,             University of Oslo,        Norway      (DALTON; ABACUS, ERI, DFT modules, London, and much more)
  Alf Christian Hennum,        University of Oslo,        Norway      (Parity violation)
  Hinne Hettema,               University of Auckland,    New Zealand (Quadratic response in RESPONS; SIRIUS supersymmetry)
  Andreas E. Hillers-Bendtsen, University of Copenhagen,  Denmark     (MP3)
  Eirik Hjertenaes,            NTNU,                      Norway      (Cholesky decomposition)
  Nicolai Machholdt Hoeyer,    Aarhus University,         Denmark     (MP3)
  Pi A. B. Haase,              University of Copenhagen,  Denmark     (Triplet AO-SOPPA)
  Maria Francesca Iozzi,       University of Oslo,        Norway      (RPA)
  Christoph Jacob,             TU Braunschweig            Germany     (Frozen density embedding)
  Brano Jansik,                Technical Univ. of Ostrava Czech Rep.  (DFT cubic response)
  Hans Joergen Aa. Jensen,     Univ. of Southern Denmark, Denmark     (DALTON; SIRIUS, RESPONS, ABACUS, MC-srDFT, and much more)
  Dan Jonsson,                 UiT The Arctic U. of NorwayNorway      (Cubic response in RESPONS module)
  Poul Joergensen,             Aarhus University,         Denmark     (RESPONS, ABACUS, and CC modules)
  Maciej Kaminski,             University of Warsaw,      Poland      (CPPh in RESPONS)
  Joanna Kauczor,              Linkoeping University,     Sweden      (Complex polarization propagator (CPP) module)
  Sheela Kirpekar,             Univ. of Southern Denmark, Denmark     (Mass-velocity & Darwin integrals)
  Frederik Oersted Kjeldal,    Technical Univ. of Denmark,Denmark     (MP3)
  Erik Kjellgren,              Univ. of Southern Denmark, Denmark     (MC-srDFT)
  Wim Klopper,                 KIT Karlsruhe,             Germany     (R12 code in CC, SIRIUS, and ABACUS modules)
  Stefan Knecht,               ETH Zurich,                Switzerland (Parallel CI and MCSCF, MC-srDFT)
  Rika Kobayashi,              Australian National Univ., Australia   (DIIS in CC, London in MCSCF)
  Henrik Koch,                 NTNU,                      Norway      (CC module, Cholesky decomposition)
  Jacob Kongsted,              Univ. of Southern Denmark, Denmark     (Polarizable embedding, polarizable density embedding, QM/MM)
  Andrea Ligabue,              University of Modena,      Italy       (CTOCD, AOSOPPA)
  Nanna H. List,               Univ. of Southern Denmark, Denmark     (Polarizable embedding)
  Ola B. Lutnaes,              University of Oslo,        Norway      (DFT Hessian)
  Juan I. Melo,                University of Buenos Aires,Argentina   (LRESC, Relativistic Effects on NMR Shieldings)
  Kurt V. Mikkelsen,           University of Copenhagen,  Denmark     (MC-SCRF, QM/MM, and MP3)
  Rolf H. Myhre,               NTNU,                      Norway      (Subsystems and CC3)
  Christian Neiss,             Univ. Erlangen-Nuernberg,  Germany     (CCSD(R12))
  Christian B. Nielsen,        University of Copenhagen,  Denmark     (QM/MM)
  Patrick Norman,              KTH Stockholm,             Sweden      (Cubic response and complex frequency response in RESPONS)
  Jeppe Olsen,                 Aarhus University,         Denmark     (SIRIUS CI/density modules)
  Jogvan Magnus H. Olsen,      Aarhus University,         Denmark     (Polarizable embedding and polarizable density embedding)
  Anders Osted,                Copenhagen University,     Denmark     (QM/MM)
  Martin J. Packer,            University of Sheffield,   UK          (SOPPA)
  Filip Pawlowski,             Kazimierz Wielki UniversityPoland      (CC3)
  Morten N. Pedersen,          Univ. of Southern Denmark, Denmark     (Polarizable embedding)
  Thomas B. Pedersen,          University of Oslo,        Norway      (Cholesky decomposition)
  Patricio F. Provasi,         University of Northeastern,Argentina   (Analysis of coupling constants in localized orbitals)
  Peter Reinholdt,             Univ. of Southern Denmark, Denmark     (Polarizable embedding and polarizable density embedding)
  Zilvinas Rinkevicius,        KTH Stockholm,             Sweden      (open-shell DFT, ESR)
  Elias Rudberg,               KTH Stockholm,             Sweden      (DFT grid and basis info)
  Torgeir A. Ruden,            University of Oslo,        Norway      (Numerical derivatives in ABACUS)
  Kenneth Ruud,                UiT The Arctic U. of NorwayNorway      (DALTON; ABACUS magnetic properties and much more)
  Pawel Salek,                 KTH Stockholm,             Sweden      (DALTON; DFT code)
  Claire C. M. Samson,         University of Karlsruhe    Germany     (Boys localization, r12 integrals in ERI)
  Alfredo Sanchez de Meras,    University of Valencia,    Spain       (CC module, Cholesky decomposition)
  Trond Saue,                  Paul Sabatier University,  France      (direct Fock matrix construction)
  Stephan P. A. Sauer,         University of Copenhagen,  Denmark     (SOPPA(CCSD), SOPPA prop., AOSOPPA, vibrational g-factors)
  Bernd Schimmelpfennig,       Forschungszentrum KarlsruheGermany     (AMFI module)
  Anna K. Schnack-Petersen,    University of Copenhagen,  Denmark     (RPA(D) and HRPA(D) properties in AOSOPPA)
  Kristian Sneskov,            Aarhus University,         Denmark     (Polarizable embedding, QM/MM)
  Arnfinn H. Steindal,         UiT The Arctic U. of NorwayNorway      (parallel QM/MM, polarizable embedding)
  Casper Steinmann,            Aalborg University,        Denmark     (QFIT, polarizable embedding)
  K. O. Sylvester-Hvid,        University of Copenhagen,  Denmark     (MC-SCRF)
  Peter R. Taylor,             VLSCI/Univ. of Melbourne,  Australia   (Symmetry handling ABACUS, integral transformation)
  Andrew M. Teale,             University of Nottingham,  England     (DFT-AC, DFT-D)
  David P. Tew,                University of Bristol,     England     (CCSD(R12))
  Julien Toulouse,             Sorbonne Univ.,            France      (MC-srDFT)
  Olav Vahtras,                KTH Stockholm,             Sweden      (Triplet response, spin-orbit, ESR, TDDFT, open-shell DFT)
  Lucas Visscher,              Vrije Universiteit AmsterdaNetherlands (Frozen density embedding)
  David J. Wilson,             La Trobe University,       Australia   (DFT Hessian and DFT magnetizabilities)
  Luna Zamok,                  University of Copenhagen,  Denmark     (Block Lanczos RPA solver in SOPPA module)
  Hans Agren,                  KTH Stockholm,             Sweden      (SIRIUS module, RESPONS, MC-SCRF solvation)
 --------------------------------------------------------------------------------

     Date and time (Linux)  : Tue Jul  7 17:01:25 2026
     Host name              : n-62-31-22                              

 * Work memory size             :   512000000 =  3.815 gigabytes.

 * Directories for basis set searches:
   1) /work3/jochar/DaltonTests
   2) /zhome/d7/7/119775/My_Codes/Dalton_Release/dalton/build_omp_nov24/basis


Compilation information
-----------------------

 Who compiled             | soco
 Host                     | hpclogin1
 System                   | Linux-6.1.112-1.el9.elrepo.x86_64
 CMake generator          | Unix Makefiles
 Processor                | x86_64
 64-bit integers          | OFF
 MPI                      | OFF
 Fortran compiler         | /appl/intel/2023.2.0.49397/compiler/2023.2.0/linux
                          | /bin/intel64/ifort
 Fortran compiler version | ifort (IFORT) 2021.10.0 20230609
 C compiler               | /appl/intel/2023.2.0.49397/compiler/2023.2.0/linux
                          | /bin/intel64/icc
 C compiler version       | icc (ICC) 2021.10.0 20230609
 C++ compiler             | /appl/intel/2023.2.0.49397/compiler/2023.2.0/linux
                          | /bin/intel64/icpc
 C++ compiler version     | icpc (ICC) 2021.10.0 20230609
 Static linking           | OFF
 Last Git revision        | a531ac4fbf115ebda1c90140ce3fd6aa236a2033
 Git branch               | master
 Configuration time       | 2024-11-14 11:23:30.470039

 * Sequential calculation.


   Content of the .dal input file
 ----------------------------------

**DALTON INPUT
.RUN WAVE FUNCTIONS   !tipo di calcolo
.RUN RESPONSE
**INTEGRALS
.DIPLEN               !integrali dell'operatore dipolo elettrico
**WAVE FUNCTION
.HF
.CI
!*PRINT
!.PRINTL
!   0 11
*SCF INP              !parte da Hartree-Fock
.DOUBLY OCCUPIED
3
.THRESH               !soglia di convergenza
 1.0D-10
*CONFIGURATION INPUT
.SPIN MULTIPLICITY
1
.SYMMETRY
1
.INACTIVE ORBITALS !the inner electrons are kept frozen
1
.CAS SPACE
4
.ELECTRONS
4
**RESPONS
*LINEAR
.THCLR
1.0d-9
.DIPLEN
.SINGLE RESIDUE
.ROOTS
300
**END OF INPUT


   Content of the .mol file
 ----------------------------

BASIS
STO-3G
test VQE
dalton test
Atomtypes=2 Angstrom Nosymmetry
Charge=4.0 Atoms=1
Be    0.0000000000000000  0.0000000000000000  0.0
Charge=1.0 Atoms=2
H     1.3300000000000000  0.0000000000000000  0.0
H    -1.3300000000000000  0.0000000000000000  0.0


       *******************************************************************
       *********** Output from DALTON general input processing ***********
       *******************************************************************

 --------------------------------------------------------------------------------
   Overall default print level:    0
   Print level for DALTON.STAT:    1

    HERMIT 1- and 2-electron integral sections will be executed
    "Old" integral transformation used (limited to max 255 basis functions)
    Wave function sections will be executed (SIRIUS module)
    Dynamic molecular response properties section will be executed (RESPONSE module)
 --------------------------------------------------------------------------------


   ****************************************************************************
   *************** Output of molecule and basis set information ***************
   ****************************************************************************


    The two title cards from your ".mol" input:
    --------------------------------------------------------------------------------
 1: test VQE
 2: dalton test
    --------------------------------------------------------------------------------

  Coordinates are entered in Angstrom and converted to atomic units.
          - Conversion factor : 1 bohr = 0.52917721 A

  Atomic type no.    1
  --------------------
  Nuclear charge:   4.00000
  Number of symmetry independent centers:    1
  Number of basis sets to read;    2
  Basis set file used for this atomic type with Z =   4 :
     "/zhome/d7/7/119775/My_Codes/Dalton_Release/dalton/build_omp_nov24/basis/STO-3G"

  Atomic type no.    2
  --------------------
  Nuclear charge:   1.00000
  Number of symmetry independent centers:    2
  Number of basis sets to read;    2
  Basis set file used for this atomic type with Z =   1 :
     "/zhome/d7/7/119775/My_Codes/Dalton_Release/dalton/build_omp_nov24/basis/STO-3G"


                         SYMGRP: Point group information
                         -------------------------------

@    Point group: C1 


                                 Isotopic Masses
                                 ---------------

                           Be          9.012183
                           H           1.007825
                           H           1.007825

                       Total mass:    11.027833 amu
                       Natural abundance:  99.970 %

 Center-of-mass coordinates (a.u.):    0.000000    0.000000    0.000000
 Center-of-mass coordinates (Angs):    0.000000    0.000000    0.000000


  Atoms and basis sets
  --------------------

  Number of atom types :    2
  Total number of atoms:    3

  Basis set used is "STO-3G" from the basis set library.

  label    atoms   charge   prim   cont     basis
  ----------------------------------------------------------------------
  Be          1    4.0000    15     5      [6s3p|2s1p]                                        
  H           2    1.0000     3     1      [3s|1s]                                            
  ----------------------------------------------------------------------
  total:      3    6.0000    21     7
  ----------------------------------------------------------------------

  Threshold for neglecting AO integrals:  1.00D-12


  Cartesian Coordinates (a.u.)
  ----------------------------

  Total number of coordinates:    9
  Be      :     1  x   0.0000000000    2  y   0.0000000000    3  z   0.0000000000
  H       :     4  x   2.5133357462    5  y   0.0000000000    6  z   0.0000000000
  H       :     7  x  -2.5133357462    8  y   0.0000000000    9  z   0.0000000000


   Interatomic separations (in Angstrom):
   --------------------------------------

            Be          H           H     
            ------      ------      ------
 Be    :    0.000000
 H     :    1.330000    0.000000
 H     :    1.330000    2.660000    0.000000


  Max    interatomic separation is    2.6600 Angstrom (    5.0267 Bohr)
  between atoms    3 and    2, "H     " and "H     ".

  Min HX interatomic separation is    1.3300 Angstrom (    2.5133 Bohr)


  Bond distances (Angstrom):
  --------------------------

                  atom 1     atom 2       distance
                  ------     ------       --------
  bond distance:  H          Be           1.330000
  bond distance:  H          Be           1.330000


  Bond angles (degrees):
  ----------------------

                  atom 1     atom 2     atom 3         angle
                  ------     ------     ------         -----
  bond angle:     H          Be         H            180.000




 Principal moments of inertia (u*A**2) and principal axes
 --------------------------------------------------------

   IA       0.000000          1.000000    0.000000    0.000000
   IB       3.565483          0.000000    1.000000    0.000000
   IC       3.565483          0.000000    0.000000    1.000000


 Rotational constants
 --------------------

@    The molecule is linear.

               B =       141742.08 MHz     (    4.728007 cm-1)


@  Nuclear repulsion energy :    3.381959617895 Hartree


                     .---------------------------------------.
                     | Starting in Integral Section (HERMIT) |
                     `---------------------------------------'



 ***************************************************************************************
 ****************** Output from **INTEGRALS input processing (HERMIT) ******************
 ***************************************************************************************



    *************************************************************************
    ****************** Output from HERMIT input processing ******************
    *************************************************************************


 Default print level:        1

 Calculation of one- and two-electron Hamiltonian integrals.

 The following one-electron property integrals are calculated as requested:
          - overlap integrals
          - dipole length integrals

 Center of mass  (bohr):      0.000000000000      0.000000000000      0.000000000000
 Operator center (bohr):      0.000000000000      0.000000000000      0.000000000000
 Gauge origin    (bohr):      0.000000000000      0.000000000000      0.000000000000
 Dipole origin   (bohr):      0.000000000000      0.000000000000      0.000000000000

Calculation of 2-electron integrals are postponed until they are needed.


     ************************************************************************
     ************************** Output from HERINT **************************
     ************************************************************************



                      Nuclear contribution to dipole moments
                      --------------------------------------

                 au               Debye          C m (/(10**-30)

      x      0.00000000         0.00000000         0.00000000
      y      0.00000000         0.00000000         0.00000000
      z      0.00000000         0.00000000         0.00000000


  Total CPU  time used in HERMIT:   0.00 seconds
  Total wall time used in HERMIT:   0.05 seconds


                        .----------------------------------.
                        | End of Integral Section (HERMIT) |
                        `----------------------------------'



                   .--------------------------------------------.
                   | Starting in Wave Function Section (SIRIUS) |
                   `--------------------------------------------'


     WARNING  Reference state is required for CI response and CI-NO
     WARNING  ".STATE" was not specified for "*CI INPUT",
     WARNING  the reference state is set to be state no.  1

 *** Output from Huckel module :

     Using EWMO model:          T
     Using EHT  model:          F
     Number of Huckel orbitals each symmetry:    7

 EWMO - Energy Weighted Maximum Overlap - is a Huckel type method,
        which normally is better than Extended Huckel Theory.
 Reference: Linderberg and Ohrn, Propagators in Quantum Chemistry (Wiley, 1973)

 Huckel EWMO eigenvalues for symmetry :  1
           -4.742490      -0.737104      -0.620322      -0.206000      -0.206000
           -0.103312      -0.044772

 **********************************************************************
 *SIRIUS* a direct, restricted step, second order MCSCF program       *
 **********************************************************************

 
     Date and time (Linux)  : Tue Jul  7 17:01:25 2026
     Host name              : n-62-31-22                              

 Title lines from ".mol" input file:
     test VQE
     dalton test

 Print level on unit LUPRI =   2 is   0
 Print level on unit LUW4  =   2 is   5

@    Configuration interaction calculation.

@    CI response calculation.

@    CI type: user specified active spaces.
@              Type: complete active space calculation (CAS).

@    This is a combination run starting with
@              a restricted, closed shell Hartree-Fock calculation


 Initial molecular orbitals are obtained according to
 ".MOSTART EWMO  " input option

     Wave function specification
     ============================
@    Wave function type        --- CI ---
@    Number of closed shell electrons           2
@    Number of electrons in active shells       4
@    Total charge of the molecule               0

@    Spin multiplicity and 2 M_S                1         0
@    Total number of symmetries                 1 (point group: C1 )
@    Reference state symmetry                   1 (irrep name : A  )

     Orbital specifications
     ======================
@    Abelian symmetry species          All |    1
@                                          |  A  
                                       --- |  ---
@    Inactive orbitals                   1 |    1
@    Active orbitals                     4 |    4
@    Secondary orbitals                  2 |    2
@    Total number of orbitals            7 |    7
@    Number of basis functions           7 |    7

      -- Initial occupation of symmetries is determined from user input.                      
      -- Initial occupation of symmetries is :
@    Occupied SCF orbitals               3 |    3

     Optimization information
     ========================
@    Number of configurations                20
@    Number of orbital rotations              0
     ------------------------------------------
@    Total number of variables               20

     Maximum number of CI iterations         25
     Threshold for CI convergence      1.00D-05
     Number of CI roots to converge           1

@    Reference state in CI response calculation :       1


 ***********************************************
 ***** DIIS acceleration of SCF iterations *****
 ***********************************************

 C1-DIIS algorithm; max error vectors =    8

 Iter      Total energy        Error norm    Delta(E)  DIIS dim.
 -----------------------------------------------------------------------------

Calculating AOSUPINT

---> (Re)generating AOTWOINT


     ************************************************************************
     ************************** Output from HERINT **************************
     ************************************************************************


 Threshold for neglecting two-electron integrals:  1.00D-12
 HERMIT - Number of two-electron integrals written:         166 ( 40.9% )
 HERMIT - Megabytes written:                              0.137

     (Precalculated AO two-electron integrals are transformed to P-supermatrix elements.
      Threshold for discarding integrals :  1.00D-12 )

@  1    -15.5145759008        6.49603D-01   -1.55D+01    1
      Virial theorem: -V/T =      1.975520
@    MULPOP   Be      0.65; H      -0.32; H      -0.32; 
   1  Level shift: doubly occupied orbital energies shifted by -2.00D-01
 -----------------------------------------------------------------------------
@  2    -15.5579306641        1.43159D-01   -4.34D-02    2
      Virial theorem: -V/T =      1.986257
@    MULPOP   Be      0.21; H      -0.10; H      -0.10; 
   2  Level shift: doubly occupied orbital energies shifted by -5.00D-02
 -----------------------------------------------------------------------------
@  3    -15.5600948861        5.75294D-03   -2.16D-03    3
      Virial theorem: -V/T =      1.987895
@    MULPOP   Be      0.09; H      -0.05; H      -0.05; 
   3  Level shift: doubly occupied orbital energies shifted by -1.25D-02
 -----------------------------------------------------------------------------
@  4    -15.5600983837        8.86200D-05   -3.50D-06    4
      Virial theorem: -V/T =      1.987937
@    MULPOP   Be      0.09; H      -0.04; H      -0.04; 
 -----------------------------------------------------------------------------
@  5    -15.5600983843        6.66856D-06   -5.65D-10    5
      Virial theorem: -V/T =      1.987937
@    MULPOP   Be      0.09; H      -0.04; H      -0.04; 
 -----------------------------------------------------------------------------
@  6    -15.5600983843        1.37662D-08   -6.20D-12    6
      Virial theorem: -V/T =      1.987937
@    MULPOP   Be      0.09; H      -0.04; H      -0.04; 
 -----------------------------------------------------------------------------
@  7    -15.5600983843        5.82242D-10   -3.55D-15    7
      Virial theorem: -V/T =      1.987937
@    MULPOP   Be      0.09; H      -0.04; H      -0.04; 
 -----------------------------------------------------------------------------
@  8    -15.5600983843        4.55102D-10    3.55D-15    8
      Virial theorem: -V/T =      1.987937
@    MULPOP   Be      0.09; H      -0.04; H      -0.04; 
 -----------------------------------------------------------------------------
@  9    -15.5600983843        5.92420D-09    0.00D+00    8
      Virial theorem: -V/T =      1.987937
@    MULPOP   Be      0.09; H      -0.04; H      -0.04; 
 -----------------------------------------------------------------------------
@ 10    -15.5600983843        1.06280D-12   -7.11D-15    8

@ *** DIIS converged in  10 iterations !
@     Converged SCF energy, gradient:    -15.560098384318    1.06D-12
    - total time used in SIRFCK :              0.00 seconds

 --- Writing SIRIFC interface file

--------------------------------------------------------------------------------


     .--------------------------------------------------.
     | HF-SCF KT IPs [a.u. & eV] from Koopmans' theorem |
     `--------------------------------------------------'


     HF-SCF KT symmetry 1 ( A  ) in point group C1  -- 3 principal poles with pole strength 1

   ============  ============  ============
       4.519610      0.457702      0.421615
     122.984843     12.454710     11.472732
   ============  ============  ============

@ Summary of HF-SCF KT ionization potentials [eV]:

@ Symmetry 1 (A  ) :   122.985      12.455      11.473

  === End of HF-SCF KT output ===
--------------------------------------------------------------------------------


 CPU and wall time for SCF :       0.028       0.365


 ----- Output from SIRIUS CI module (CICTL) -----




 2-el. integral transformation level 0: Total CPU and WALL times (sec)       0.004       0.162

 (CIST1) 8 lowest diagonal elements:

 Element no. Config.no.    Active energy      Total energy

         1 :          1     -3.9111134311    -15.5600983843
         2 :          7     -3.6196324933    -15.2686174465
         3 :          8     -3.6196324933    -15.2686174465
         4 :         10     -3.5614022980    -15.2103872512
         5 :         11     -3.5614022980    -15.2103872512
         6 :         19     -3.2240423157    -14.8730272689
         7 :         20     -3.2240423157    -14.8730272689
         8 :          9     -3.2049482021    -14.8539331552

Lowest 1 elements are used as separate start CI vectors.


 Convergence threshold for CI optimization :     0.00001000


 CI root     eigenvalue        residual norm

    1      -15.5600983843        0.0729285531

 CI root     eigenvalue        residual norm

    1      -15.5658193548        0.0111603240

 CI root     eigenvalue        residual norm

    1      -15.5659898674        0.0011615625

 CI root     eigenvalue        residual norm

    1      -15.5659907177        0.0000000000 converged

 The requested root number is now converged.


 *** CI converged in  4 iterations.



@ Final CI energies and residuals in symmetry 1 (irrep A  )
@    1      -15.565990717731992       6.27D-15

 Writing SIRIFC interface file for CI root no. 1

 CPU and wall time for CI :       0.008       0.228


                       .-----------------------------------.
                       | --- Final results from SIRIUS --- |
                       `-----------------------------------'


@    Spin multiplicity:           1
@    Spatial symmetry:            1 ( irrep  A   in C1  )
@    Total charge of molecule:    0

@    This was a CI calculation.
@    State number:                1

@    Final CI energy:             -15.565990717732
@    Nuclear repulsion:             3.381959617895
@    Electronic energy:           -18.947950335627

@    Final gradient norm:           0.000000000000

 
     Date and time (Linux)  : Tue Jul  7 17:01:26 2026
     Host name              : n-62-31-22                              

 Occupancies of natural orbitals
 -------------------------------

 Symmetry 1  ( A  ) -- Total occupation in this symmetry is   6.000000000

   2.000000000   1.986812370   1.999817457   0.006685086   0.006685086

  Effective numbers of unpaired electrons this symmetry Eqs. 1) and 2):  0.05  0.00

  Total effective number of unpaired electrons :
  Eq. 1) sum(i) [(2 - n_i) n_i]    =  0.0532
  Eq. 2) sum(i) [(2 - n_i) n_i]**2 =  0.0010
 (Reference: M. Head-Gordon, Chemical Physics Letters 372 (2003) 508-511)

File label for MO orbitals:   7Jul26    CIORB  

 (Only coefficients > 0.0100 are printed.)

 Molecular orbitals for symmetry species 1  (A  )
 ------------------------------------------------

    Orbital         1        2        3        4        5        6        7
   1 Be  :1s     0.9918  -0.2245   0.0000  -0.0000   0.0000  -0.2181  -0.0000
   2 Be  :1s     0.0318   0.5565  -0.0000  -0.0000  -0.0000   1.2335   0.0000
   3 Be  :2px    0.0000  -0.0000  -0.5035   0.0000  -0.0000  -0.0000   1.4589
   4 Be  :2py   -0.0000   0.0000  -0.0000   0.0999  -0.9950  -0.0000  -0.0000
   5 Be  :2pz    0.0000   0.0000  -0.0000   0.9950   0.0999   0.0000  -0.0000
   6 H   :1s    -0.0028   0.3945  -0.4047  -0.0000   0.0000  -0.8227  -1.0355
   7 H   :1s    -0.0028   0.3945   0.4047   0.0000   0.0000  -0.8227   1.0355

 Printout of CI-coefficients abs greater than 0.05000 for root  1
 *** NOTE: this root is the CI reference state ***

 Printout of coefficients in interval  3.1623E-01 to  1.0000E+00
 ===============================================================

  Coefficient of CSF no.         1 is      0.99665284    9.96652840E-01
  Orbital          1   2
  Spin coupling    2   2

 Printout of coefficients in interval  1.0000E-01 to  3.1623E-01
 ===============================================================
   ( no coefficients )

 Printout of coefficients in interval  5.0000E-02 to  1.0000E-01
 ===============================================================

  Coefficient of CSF no.         3 is     -0.05741013   -5.74101258E-02
  Orbital          2   3
  Spin coupling    2   2

  Coefficient of CSF no.         5 is     -0.05741013   -5.74101258E-02
  Orbital          2   4
  Spin coupling    2   2

 Norm of printed CI vector ..      0.99990873

 Magnitude of CI coefficients
 ============================
 ( Ranges are relative to norm of vector :  1.00E+00 )

  10- 1 to 10- 0         1    0.99331688E+00      0.9933168836
  10- 2 to 10- 1         2    0.65918451E-02      0.9999087287
  10- 3 to 10- 2         3    0.91271287E-04      1.0000000000
  Number of coefficients less than 10^-11 times norm is           14

  Total CPU  time used in SIRIUS :   0.05 seconds
  Total wall time used in SIRIUS :   0.71 seconds

 
     Date and time (Linux)  : Tue Jul  7 17:01:26 2026
     Host name              : n-62-31-22                              


                     .---------------------------------------.
                     | End of Wave Function Section (SIRIUS) |
                     `---------------------------------------'



                 .------------------------------------------------.
                 | Starting in Dynamic Property Section (RESPONS) |
                 `------------------------------------------------'


 ----------------------------------------------------------------------------------------
  RESPONSE  -  an MCSCF, MC-srDFT, DFT, SOPPA and SOPPA-srDFT response property program
 ----------------------------------------------------------------------------------------

 This is a configuration interaction response calculation.
   Note: this is equivalent to a CI sum-over-states calculation of response properties.


 -------- OUTPUT FROM RESPONSE INPUT PROCESSING --------




  Linear Response single residue calculation
 -------------------------------------------


    4 input options by user.

 Print level                                    : IPRPP  =   2
 Maximum number of iterations for eigenval.eqs. : MAXITP =  60
 Threshold for convergence of eigenvalue eqs.   : THCPP  = 1.000D-03
 Maximum iterations in optimal orbital algorithm: MAXITO =   5

    300 Excitation energies are calculated for symmetry no.    1

      3 property residues are calculated with labels:

               XDIPLEN 
               YDIPLEN 
               ZDIPLEN 

 Old direct access AO file found, SORTA skipped.

 2-el. integral transformation level 4: Total CPU and WALL times (sec)       0.003       0.098


 CI energy            :      -15.565990717731992
 -- inactive part     :      -11.648984953171549
 --   active part     :       -3.917005764560443
 -- nuclear repulsion :        3.381959617894736


                         *******************************
                         *** CI response calculation ***
                         *******************************

 ----------------------------------------------------------------
 ----- Linear response calculation
 ----- Symmetry of excitation/property operator(s)    1  ( A  )
 ----------------------------------------------------------------

 Number of excitations of this symmetry          300
 Number of response properties of this symmetry    0
 Number of C6/C8 properties of this symmetry       0


 Perturbation symmetry.     KSYMOP:           1
 Perturbation spin symmetry.TRPLET:           F
 Orbital variables.         KZWOPT:           0
 Configuration variables.   KZCONF:          20
 Total number of variables. KZVAR :          20

 ** RSPVAR ** Number of PP start vectors  300
   exceeds the maximum number of variables   19
   Number of start vectors reset to number of variables



 --- EXCITATION ENERGIES AND TRANSITION MOMENT CALCULATION (MCTDHF) ---

 Operator symmetry = 1  ( A  ); triplet =   F

RSPORT:    1 out of   20 new trial vectors linear dependent

 ** RSPCTL MICROITERATION NUMBER    1

      Root  Residual tot.,    conf., and orb.    Bnorm      Eigenvalue
      ----------------------------------------------------------------
         1    5.21442D-16  5.21D-16  0.00D+00  1.00D+00    3.09203D-01
         2    2.84846D-16  2.85D-16  0.00D+00  1.00D+00    3.09203D-01
         3    7.16480D-16  7.16D-16  0.00D+00  1.00D+00    4.04776D-01
         4    7.17201D-16  7.17D-16  0.00D+00  1.00D+00    4.04776D-01
         5    1.11610D-15  1.12D-15  0.00D+00  1.00D+00    5.96955D-01
         6    8.35311D-16  8.35D-16  0.00D+00  1.00D+00    5.96955D-01
         7    1.41705D-15  1.42D-15  0.00D+00  1.00D+00    6.45161D-01
         8    9.02250D-16  9.02D-16  0.00D+00  1.00D+00    6.74011D-01
         9    5.29845D-16  5.30D-16  0.00D+00  1.00D+00    9.23180D-01
        10    3.32708D-16  3.33D-16  0.00D+00  1.00D+00    9.23180D-01
        11    5.87334D-16  5.87D-16  0.00D+00  1.00D+00    9.30349D-01
        12    6.91277D-16  6.91D-16  0.00D+00  1.00D+00    9.30349D-01
        13    7.73442D-16  7.73D-16  0.00D+00  1.00D+00    9.71679D-01
        14    7.30184D-16  7.30D-16  0.00D+00  1.00D+00    9.78143D-01
        15    9.49638D-16  9.50D-16  0.00D+00  1.00D+00    1.17446D+00
        16    2.43399D-15  2.43D-15  0.00D+00  1.00D+00    1.17446D+00
        17    9.53669D-16  9.54D-16  0.00D+00  1.00D+00    1.21020D+00
        18    5.33808D-16  5.34D-16  0.00D+00  1.00D+00    1.21020D+00
        19    2.02422D-15  2.02D-15  0.00D+00  1.00D+00    1.67726D+00
        20    5.21442D-16  5.21D-16  0.00D+00  1.00D+00   -3.09203D-01

 *** THE REQUESTED   19 SOLUTION VECTORS CONVERGED

 Convergence of RSP solution vectors, threshold = 1.00D-03
 ---------------------------------------------------------------
 (dimension of paired reduced space:   38)
 RSP solution vector no.    1; norm of residual   5.21D-16
 RSP solution vector no.    2; norm of residual   2.85D-16
 RSP solution vector no.    3; norm of residual   7.16D-16
 RSP solution vector no.    4; norm of residual   7.17D-16
 RSP solution vector no.    5; norm of residual   1.12D-15
 RSP solution vector no.    6; norm of residual   8.35D-16
 RSP solution vector no.    7; norm of residual   1.42D-15
 RSP solution vector no.    8; norm of residual   9.02D-16
 RSP solution vector no.    9; norm of residual   5.30D-16
 RSP solution vector no.   10; norm of residual   3.33D-16
 RSP solution vector no.   11; norm of residual   5.87D-16
 RSP solution vector no.   12; norm of residual   6.91D-16
 RSP solution vector no.   13; norm of residual   7.73D-16
 RSP solution vector no.   14; norm of residual   7.30D-16
 RSP solution vector no.   15; norm of residual   9.50D-16
 RSP solution vector no.   16; norm of residual   2.43D-15
 RSP solution vector no.   17; norm of residual   9.54D-16
 RSP solution vector no.   18; norm of residual   5.34D-16
 RSP solution vector no.   19; norm of residual   2.02D-15

 *** RSPCTL MICROITERATIONS CONVERGED

@ Singlet transition operator label: XDIPLEN 
@ STATE NO:    1 *TRANSITION MOMENT:  1.64962506E-17 *ENERGY(eV):   8.4138525    
@ STATE NO:    2 *TRANSITION MOMENT: -6.49225250E-16 *ENERGY(eV):   8.4138525    
@ STATE NO:    3 *TRANSITION MOMENT: -5.00899978E-17 *ENERGY(eV):   11.014507    
@ STATE NO:    4 *TRANSITION MOMENT: -4.62547304E-17 *ENERGY(eV):   11.014507    
@ STATE NO:    5 *TRANSITION MOMENT: -1.25372494E-16 *ENERGY(eV):   16.243984    
@ STATE NO:    6 *TRANSITION MOMENT:  8.19328754E-17 *ENERGY(eV):   16.243984    
@ STATE NO:    7 *TRANSITION MOMENT: -1.55614545E-15 *ENERGY(eV):   17.555730    
@ STATE NO:    8 *TRANSITION MOMENT:  1.03626986E-16 *ENERGY(eV):   18.340764    
@ STATE NO:    9 *TRANSITION MOMENT:  2.65065747E-15 *ENERGY(eV):   25.120999    
@ STATE NO:   10 *TRANSITION MOMENT:  8.32667268E-17 *ENERGY(eV):   25.120999    
@ STATE NO:   11 *TRANSITION MOMENT: -1.09127588E-15 *ENERGY(eV):   25.316095    
@ STATE NO:   12 *TRANSITION MOMENT:  2.32083306E-15 *ENERGY(eV):   25.316095    
@ STATE NO:   13 *TRANSITION MOMENT:  0.25177712     *ENERGY(eV):   26.440717    
@ STATE NO:   14 *TRANSITION MOMENT:  4.85996748E-15 *ENERGY(eV):   26.616619    
@ STATE NO:   15 *TRANSITION MOMENT: -2.49529867E-17 *ENERGY(eV):   31.958591    

@ Singlet transition operator label: YDIPLEN 
@ STATE NO:    1 *TRANSITION MOMENT:  1.24425977E-15 *ENERGY(eV):   8.4138525    
@ STATE NO:    2 *TRANSITION MOMENT:  5.59380689E-15 *ENERGY(eV):   8.4138525    
@ STATE NO:    3 *TRANSITION MOMENT:   1.2803428     *ENERGY(eV):   11.014507    
@ STATE NO:    4 *TRANSITION MOMENT: -0.11941747     *ENERGY(eV):   11.014507    
@ STATE NO:    5 *TRANSITION MOMENT: -6.07568180E-16 *ENERGY(eV):   16.243984    
@ STATE NO:    6 *TRANSITION MOMENT:  1.59216815E-15 *ENERGY(eV):   16.243984    
@ STATE NO:    7 *TRANSITION MOMENT:  2.52312949E-16 *ENERGY(eV):   17.555730    
@ STATE NO:    8 *TRANSITION MOMENT:  3.02578554E-17 *ENERGY(eV):   18.340764    
@ STATE NO:    9 *TRANSITION MOMENT: -2.46509914E-17 *ENERGY(eV):   25.120999    
@ STATE NO:   10 *TRANSITION MOMENT: -2.76079661E-17 *ENERGY(eV):   25.120999    
@ STATE NO:   11 *TRANSITION MOMENT:  3.17736441E-18 *ENERGY(eV):   25.316095    
@ STATE NO:   12 *TRANSITION MOMENT:  9.31153599E-18 *ENERGY(eV):   25.316095    
@ STATE NO:   13 *TRANSITION MOMENT: -4.29316930E-16 *ENERGY(eV):   26.440717    
@ STATE NO:   14 *TRANSITION MOMENT:  1.18071918E-16 *ENERGY(eV):   26.616619    
@ STATE NO:   15 *TRANSITION MOMENT: -1.81249670E-16 *ENERGY(eV):   31.958591    

@ Singlet transition operator label: ZDIPLEN 
@ STATE NO:    1 *TRANSITION MOMENT:  4.89032026E-15 *ENERGY(eV):   8.4138525    
@ STATE NO:    2 *TRANSITION MOMENT: -2.49890587E-15 *ENERGY(eV):   8.4138525    
@ STATE NO:    3 *TRANSITION MOMENT: -9.36877628E-02 *ENERGY(eV):   11.014507    
@ STATE NO:    4 *TRANSITION MOMENT:   1.2781997     *ENERGY(eV):   11.014507    
@ STATE NO:    5 *TRANSITION MOMENT:  6.11794887E-16 *ENERGY(eV):   16.243984    
@ STATE NO:    6 *TRANSITION MOMENT: -1.73932411E-15 *ENERGY(eV):   16.243984    
@ STATE NO:    7 *TRANSITION MOMENT: -3.71018709E-17 *ENERGY(eV):   17.555730    
@ STATE NO:    8 *TRANSITION MOMENT:  7.00776354E-17 *ENERGY(eV):   18.340764    
@ STATE NO:    9 *TRANSITION MOMENT: -2.69227341E-16 *ENERGY(eV):   25.120999    
@ STATE NO:   10 *TRANSITION MOMENT:  6.11589626E-17 *ENERGY(eV):   25.120999    
@ STATE NO:   11 *TRANSITION MOMENT:  8.10628738E-17 *ENERGY(eV):   25.316095    
@ STATE NO:   12 *TRANSITION MOMENT: -2.10215212E-17 *ENERGY(eV):   25.316095    
@ STATE NO:   13 *TRANSITION MOMENT: -2.79499142E-16 *ENERGY(eV):   26.440717    
@ STATE NO:   14 *TRANSITION MOMENT:  7.08168924E-18 *ENERGY(eV):   26.616619    
@ STATE NO:   15 *TRANSITION MOMENT:  4.19148913E-16 *ENERGY(eV):   31.958591    


 **************************************************************************************
 *** @ Excit. operator sym 1 & ref. state sym 1 => excited state symmetry 1  ( A  ) ***
 **************************************************************************************



 @ Excited state no:    1 in symmetry 1  ( A  ) - singlet excitation
 -------------------------------------------------------------------

@ Excitation energy :  0.30920340     au
@                       8.4138525     eV;   67862.302     cm-1;   811.81340     kJ / mol

@ Total energy :       -15.256787     au

@ Operator label: XDIPLEN ; Transition moment :  1.64962506E-17 au
@ Oscillator strength (LENGTH)   :  5.60949152E-35  (X-polarization)

@ Operator label: YDIPLEN ; Transition moment :  1.24425977E-15 au
@ Oscillator strength (LENGTH)   :  3.19135504E-31  (Y-polarization)

@ Operator label: ZDIPLEN ; Transition moment :  4.89032026E-15 au
@ Oscillator strength (LENGTH)   :  4.92978076E-30  (Z-polarization)
@ Total oscillator strength (LENGTH)   :  5.24897236E-30

 Eigenvector for state no.  1

      Index(conf)                         Z operator          Y operator
      ----------                      --------------      --------------
           7                           -0.9983607394        0.0000000000

       19 elements with absolute value ≤ 1.00D-01 are not printed.

 Printout of coefficients in interval  3.1623E-01 to  1.0000E+00
 ===============================================================

  Coefficient of CSF no.         7 is     -0.99836074   -9.98360739E-01
  Orbital          1   2   3
  Spin coupling    2   1  -1

 Printout of coefficients in interval  1.0000E-01 to  3.1623E-01
 ===============================================================
   ( no coefficients )

 Norm of printed CI vector ..      0.99672417

 Magnitude of CI coefficients
 ============================
 ( Ranges are relative to norm of vector :  1.00E+00 )

  10- 1 to 10- 0         1    0.99672417E+00      0.9967241660
  10- 2 to 10- 1         1    0.32755411E-02      0.9999997071
  10- 4 to 10- 3         1    0.29190199E-06      0.9999999990
  10- 5 to 10- 4         1    0.95927942E-09      1.0000000000
  Number of coefficients less than 10^-11 times norm is           16


 @ Excited state no:    2 in symmetry 1  ( A  ) - singlet excitation
 -------------------------------------------------------------------

@ Excitation energy :  0.30920340     au
@                       8.4138525     eV;   67862.302     cm-1;   811.81340     kJ / mol

@ Total energy :       -15.256787     au

@ Operator label: XDIPLEN ; Transition moment : -6.49225250E-16 au
@ Oscillator strength (LENGTH)   :  8.68848003E-32  (X-polarization)

@ Operator label: YDIPLEN ; Transition moment :  5.59380689E-15 au
@ Oscillator strength (LENGTH)   :  6.45012220E-30  (Y-polarization)

@ Operator label: ZDIPLEN ; Transition moment : -2.49890587E-15 au
@ Oscillator strength (LENGTH)   :  1.28722005E-30  (Z-polarization)
@ Total oscillator strength (LENGTH)   :  7.82422705E-30

 Eigenvector for state no.  2

      Index(conf)                         Z operator          Y operator
      ----------                      --------------      --------------
           8                            0.9979292599        0.0000000000

       19 elements with absolute value ≤ 1.00D-01 are not printed.

 Printout of coefficients in interval  3.1623E-01 to  1.0000E+00
 ===============================================================

  Coefficient of CSF no.         8 is      0.99792926    9.97929260E-01
  Orbital          1   2   4
  Spin coupling    2   1  -1

 Printout of coefficients in interval  1.0000E-01 to  3.1623E-01
 ===============================================================
   ( no coefficients )

 Norm of printed CI vector ..      0.99586281

 Magnitude of CI coefficients
 ============================
 ( Ranges are relative to norm of vector :  1.00E+00 )

  10- 1 to 10- 0         1    0.99586281E+00      0.9958628077
  10- 2 to 10- 1         2    0.41343606E-02      0.9999971684
  10- 3 to 10- 2         1    0.28316466E-05      1.0000000000
  Number of coefficients less than 10^-11 times norm is           16


 @ Excited state no:    3 in symmetry 1  ( A  ) - singlet excitation
 -------------------------------------------------------------------

@ Excitation energy :  0.40477570     au
@                       11.014507     eV;   88837.996     cm-1;   1062.7384     kJ / mol

@ Total energy :       -15.161215     au

@ Operator label: XDIPLEN ; Transition moment : -5.00899978E-17 au
@ Oscillator strength (LENGTH)   :  6.77056940E-34  (X-polarization)

@ Operator label: YDIPLEN ; Transition moment :   1.2803428     au
@ Oscillator strength (LENGTH)   :  0.44235985      (Y-polarization)

@ Operator label: ZDIPLEN ; Transition moment : -9.36877628E-02 au
@ Oscillator strength (LENGTH)   :  2.36858462E-03  (Z-polarization)
@ Total oscillator strength (LENGTH)   :  0.44472844    

 Eigenvector for state no.  3

      Index(conf)                         Z operator          Y operator
      ----------                      --------------      --------------
          11                           -0.9994699132        0.0000000000

       19 elements with absolute value ≤ 1.00D-01 are not printed.

 Printout of coefficients in interval  3.1623E-01 to  1.0000E+00
 ===============================================================

  Coefficient of CSF no.        11 is     -0.99946991   -9.99469913E-01
  Orbital          2   1   4
  Spin coupling    2   1  -1

 Printout of coefficients in interval  1.0000E-01 to  3.1623E-01
 ===============================================================
   ( no coefficients )

 Norm of printed CI vector ..      0.99894011

 Magnitude of CI coefficients
 ============================
 ( Ranges are relative to norm of vector :  1.00E+00 )

  10- 1 to 10- 0         1    0.99894011E+00      0.9989401075
  10- 2 to 10- 1         2    0.10596509E-02      0.9999997584
  10- 4 to 10- 3         1    0.24158156E-06      1.0000000000
  Number of coefficients less than 10^-11 times norm is           16


 @ Excited state no:    4 in symmetry 1  ( A  ) - singlet excitation
 -------------------------------------------------------------------

@ Excitation energy :  0.40477570     au
@                       11.014507     eV;   88837.996     cm-1;   1062.7384     kJ / mol

@ Total energy :       -15.161215     au

@ Operator label: XDIPLEN ; Transition moment : -4.62547304E-17 au
@ Oscillator strength (LENGTH)   :  5.77345089E-34  (X-polarization)

@ Operator label: YDIPLEN ; Transition moment : -0.11941747     au
@ Oscillator strength (LENGTH)   :  3.84821120E-03  (Y-polarization)

@ Operator label: ZDIPLEN ; Transition moment :   1.2781997     au
@ Oscillator strength (LENGTH)   :  0.44088023      (Z-polarization)
@ Total oscillator strength (LENGTH)   :  0.44472844    

 Eigenvector for state no.  4

      Index(conf)                         Z operator          Y operator
      ----------                      --------------      --------------
          10                            0.9812332183        0.0000000000
          11                            0.1919629446        0.0000000000

       18 elements with absolute value ≤ 1.00D-01 are not printed.

 Printout of coefficients in interval  3.1623E-01 to  1.0000E+00
 ===============================================================

  Coefficient of CSF no.        10 is      0.98123322    9.81233218E-01
  Orbital          2   1   3
  Spin coupling    2   1  -1

 Printout of coefficients in interval  1.0000E-01 to  3.1623E-01
 ===============================================================

  Coefficient of CSF no.        11 is      0.19196294    1.91962945E-01
  Orbital          2   1   4
  Spin coupling    2   1  -1

 Norm of printed CI vector ..      0.99966840

 Magnitude of CI coefficients
 ============================
 ( Ranges are relative to norm of vector :  1.00E+00 )

  10- 1 to 10- 0         2    0.99966840E+00      0.9996684009
  10- 2 to 10- 1         1    0.31937572E-03      0.9999877766
  10- 3 to 10- 2         1    0.12223405E-04      1.0000000000
  Number of coefficients less than 10^-11 times norm is           16


 @ Excited state no:    5 in symmetry 1  ( A  ) - singlet excitation
 -------------------------------------------------------------------

@ Excitation energy :  0.59695546     au
@                       16.243984     eV;   131016.58     cm-1;   1567.3063     kJ / mol

@ Total energy :       -14.969035     au

@ Operator label: XDIPLEN ; Transition moment : -1.25372494E-16 au
@ Oscillator strength (LENGTH)   :  6.25540164E-33  (X-polarization)

@ Operator label: YDIPLEN ; Transition moment : -6.07568180E-16 au
@ Oscillator strength (LENGTH)   :  1.46906399E-31  (Y-polarization)

@ Operator label: ZDIPLEN ; Transition moment :  6.11794887E-16 au
@ Oscillator strength (LENGTH)   :  1.48957494E-31  (Z-polarization)
@ Total oscillator strength (LENGTH)   :  3.02119295E-31

 Eigenvector for state no.  5

      Index(conf)                         Z operator          Y operator
      ----------                      --------------      --------------
           2                           -0.1438441723        0.0000000000
           3                            0.1218988677        0.0000000000
           4                            0.1438441723        0.0000000000
           5                           -0.1218988677        0.0000000000
           9                            0.7352817640        0.0000000000
          12                           -0.6231049413        0.0000000000

       14 elements with absolute value ≤ 1.00D-01 are not printed.

 Printout of coefficients in interval  3.1623E-01 to  1.0000E+00
 ===============================================================

  Coefficient of CSF no.         9 is      0.73528176    7.35281764E-01
  Orbital          1   3   4
  Spin coupling    2   1  -1

  Coefficient of CSF no.        12 is     -0.62310494   -6.23104941E-01
  Orbital          2   3   4
  Spin coupling    2   1  -1

 Printout of coefficients in interval  1.0000E-01 to  3.1623E-01
 ===============================================================

  Coefficient of CSF no.         2 is     -0.14384417   -1.43844172E-01
  Orbital          1   3
  Spin coupling    2   2

  Coefficient of CSF no.         3 is      0.12189887    1.21898868E-01
  Orbital          2   3
  Spin coupling    2   2

  Coefficient of CSF no.         4 is      0.14384417    1.43844172E-01
  Orbital          1   4
  Spin coupling    2   2

  Coefficient of CSF no.         5 is     -0.12189887   -1.21898868E-01
  Orbital          2   4
  Spin coupling    2   2

 Norm of printed CI vector ..      1.00000000

 Magnitude of CI coefficients
 ============================
 ( Ranges are relative to norm of vector :  1.00E+00 )

  10- 1 to 10- 0         6    0.10000000E+01      1.0000000000
  Number of coefficients less than 10^-11 times norm is           14


 @ Excited state no:    6 in symmetry 1  ( A  ) - singlet excitation
 -------------------------------------------------------------------

@ Excitation energy :  0.59695546     au
@                       16.243984     eV;   131016.58     cm-1;   1567.3063     kJ / mol

@ Total energy :       -14.969035     au

@ Operator label: XDIPLEN ; Transition moment :  8.19328754E-17 au
@ Oscillator strength (LENGTH)   :  2.67157312E-33  (X-polarization)

@ Operator label: YDIPLEN ; Transition moment :  1.59216815E-15 au
@ Oscillator strength (LENGTH)   :  1.00885450E-30  (Y-polarization)

@ Operator label: ZDIPLEN ; Transition moment : -1.73932411E-15 au
@ Oscillator strength (LENGTH)   :  1.20395903E-30  (Z-polarization)
@ Total oscillator strength (LENGTH)   :  2.21548510E-30

 Eigenvector for state no.  6

      Index(conf)                         Z operator          Y operator
      ----------                      --------------      --------------
           2                            0.5364199594        0.0000000000
           3                           -0.4545820986        0.0000000000
           4                           -0.5364199594        0.0000000000
           5                            0.4545820986        0.0000000000

       16 elements with absolute value ≤ 1.00D-01 are not printed.

 Printout of coefficients in interval  3.1623E-01 to  1.0000E+00
 ===============================================================

  Coefficient of CSF no.         2 is      0.53641996    5.36419959E-01
  Orbital          1   3
  Spin coupling    2   2

  Coefficient of CSF no.         3 is     -0.45458210   -4.54582099E-01
  Orbital          2   3
  Spin coupling    2   2

  Coefficient of CSF no.         4 is     -0.53641996   -5.36419959E-01
  Orbital          1   4
  Spin coupling    2   2

  Coefficient of CSF no.         5 is      0.45458210    4.54582099E-01
  Orbital          2   4
  Spin coupling    2   2

 Printout of coefficients in interval  1.0000E-01 to  3.1623E-01
 ===============================================================
   ( no coefficients )

 Norm of printed CI vector ..      0.98878251

 Magnitude of CI coefficients
 ============================
 ( Ranges are relative to norm of vector :  1.00E+00 )

  10- 1 to 10- 0         4    0.98878251E+00      0.9887825145
  10- 2 to 10- 1         2    0.11217486E-01      1.0000000000
  Number of coefficients less than 10^-11 times norm is           14


 @ Excited state no:    7 in symmetry 1  ( A  ) - singlet excitation
 -------------------------------------------------------------------

@ Excitation energy :  0.64516123     au
@                       17.555730     eV;   141596.52     cm-1;   1693.8705     kJ / mol

@ Total energy :       -14.920829     au

@ Operator label: XDIPLEN ; Transition moment : -1.55614545E-15 au
@ Oscillator strength (LENGTH)   :  1.04154341E-30  (X-polarization)

@ Operator label: YDIPLEN ; Transition moment :  2.52312949E-16 au
@ Oscillator strength (LENGTH)   :  2.73814270E-32  (Y-polarization)

@ Operator label: ZDIPLEN ; Transition moment : -3.71018709E-17 au
@ Oscillator strength (LENGTH)   :  5.92063951E-34  (Z-polarization)
@ Total oscillator strength (LENGTH)   :  1.06951690E-30

 Eigenvector for state no.  7

      Index(conf)                         Z operator          Y operator
      ----------                      --------------      --------------
           2                           -0.5457997205        0.0000000000
           3                            0.4475855494        0.0000000000
           4                           -0.5457997205        0.0000000000
           5                            0.4475855494        0.0000000000

       16 elements with absolute value ≤ 1.00D-01 are not printed.

 Printout of coefficients in interval  3.1623E-01 to  1.0000E+00
 ===============================================================

  Coefficient of CSF no.         2 is     -0.54579972   -5.45799720E-01
  Orbital          1   3
  Spin coupling    2   2

  Coefficient of CSF no.         3 is      0.44758555    4.47585549E-01
  Orbital          2   3
  Spin coupling    2   2

  Coefficient of CSF no.         4 is     -0.54579972   -5.45799720E-01
  Orbital          1   4
  Spin coupling    2   2

  Coefficient of CSF no.         5 is      0.44758555    4.47585549E-01
  Orbital          2   4
  Spin coupling    2   2

 Printout of coefficients in interval  1.0000E-01 to  3.1623E-01
 ===============================================================
   ( no coefficients )

 Norm of printed CI vector ..      0.99646032

 Magnitude of CI coefficients
 ============================
 ( Ranges are relative to norm of vector :  1.00E+00 )

  10- 1 to 10- 0         4    0.99646032E+00      0.9964603178
  10- 2 to 10- 1         2    0.35396822E-02      1.0000000000
  Number of coefficients less than 10^-11 times norm is           14


 @ Excited state no:    8 in symmetry 1  ( A  ) - singlet excitation
 -------------------------------------------------------------------

@ Excitation energy :  0.67401071     au
@                       18.340764     eV;   147928.25     cm-1;   1769.6148     kJ / mol

@ Total energy :       -14.891980     au

@ Operator label: XDIPLEN ; Transition moment :  1.03626986E-16 au
@ Oscillator strength (LENGTH)   :  4.82526613E-33  (X-polarization)

@ Operator label: YDIPLEN ; Transition moment :  3.02578554E-17 au
@ Oscillator strength (LENGTH)   :  4.11388194E-34  (Y-polarization)

@ Operator label: ZDIPLEN ; Transition moment :  7.00776354E-17 au
@ Oscillator strength (LENGTH)   :  2.20665489E-33  (Z-polarization)
@ Total oscillator strength (LENGTH)   :  7.44330921E-33

 Eigenvector for state no.  8

      Index(conf)                         Z operator          Y operator
      ----------                      --------------      --------------
          19                            1.0000000000        0.0000000000

       19 elements with absolute value ≤ 1.00D-01 are not printed.

 Printout of coefficients in interval  3.1623E-01 to  1.0000E+00
 ===============================================================

  Coefficient of CSF no.        19 is      1.00000000    1.00000000E+00
  Orbital          1   2   3   4
  Spin coupling    1   1  -1  -1

 Printout of coefficients in interval  1.0000E-01 to  3.1623E-01
 ===============================================================
   ( no coefficients )

 Norm of printed CI vector ..      1.00000000

 Magnitude of CI coefficients
 ============================
 ( Ranges are relative to norm of vector :  1.00E+00 )

  10- 1 to 10- 0         1    0.10000000E+01      1.0000000000
  Number of coefficients less than 10^-11 times norm is           19


 @ Excited state no:    9 in symmetry 1  ( A  ) - singlet excitation
 -------------------------------------------------------------------

@ Excitation energy :  0.92317976     au
@                       25.120999     eV;   202614.54     cm-1;   2423.8081     kJ / mol

@ Total energy :       -14.642811     au

@ Operator label: XDIPLEN ; Transition moment :  2.65065747E-15 au
@ Oscillator strength (LENGTH)   :  4.32416478E-30  (X-polarization)

@ Operator label: YDIPLEN ; Transition moment : -2.46509914E-17 au
@ Oscillator strength (LENGTH)   :  3.73993277E-34  (Y-polarization)

@ Operator label: ZDIPLEN ; Transition moment : -2.69227341E-16 au
@ Oscillator strength (LENGTH)   :  4.46101146E-32  (Z-polarization)
@ Total oscillator strength (LENGTH)   :  4.36914889E-30

 Eigenvector for state no.  9

      Index(conf)                         Z operator          Y operator
      ----------                      --------------      --------------
          13                            0.6986835190        0.0000000000
          16                           -0.6986835190        0.0000000000
          20                            0.1538917821        0.0000000000

       17 elements with absolute value ≤ 1.00D-01 are not printed.

 Printout of coefficients in interval  3.1623E-01 to  1.0000E+00
 ===============================================================

  Coefficient of CSF no.        13 is      0.69868352    6.98683519E-01
  Orbital          3   1   2
  Spin coupling    2   1  -1

  Coefficient of CSF no.        16 is     -0.69868352   -6.98683519E-01
  Orbital          4   1   2
  Spin coupling    2   1  -1

 Printout of coefficients in interval  1.0000E-01 to  3.1623E-01
 ===============================================================

  Coefficient of CSF no.        20 is      0.15389178    1.53891782E-01
  Orbital          1   2   3   4
  Spin coupling    1  -1   1  -1

 Norm of printed CI vector ..      1.00000000

 Magnitude of CI coefficients
 ============================
 ( Ranges are relative to norm of vector :  1.00E+00 )

  10- 1 to 10- 0         3    0.10000000E+01      1.0000000000
  Number of coefficients less than 10^-11 times norm is           17


 @ Excited state no:   10 in symmetry 1  ( A  ) - singlet excitation
 -------------------------------------------------------------------

@ Excitation energy :  0.92317976     au
@                       25.120999     eV;   202614.54     cm-1;   2423.8081     kJ / mol

@ Total energy :       -14.642811     au

@ Operator label: XDIPLEN ; Transition moment :  8.32667268E-17 au
@ Oscillator strength (LENGTH)   :  4.26715090E-33  (X-polarization)

@ Operator label: YDIPLEN ; Transition moment : -2.76079661E-17 au
@ Oscillator strength (LENGTH)   :  4.69098282E-34  (Y-polarization)

@ Operator label: ZDIPLEN ; Transition moment :  6.11589626E-17 au
@ Oscillator strength (LENGTH)   :  2.30205256E-33  (Z-polarization)
@ Total oscillator strength (LENGTH)   :  7.03830174E-33

 Eigenvector for state no. 10

      Index(conf)                         Z operator          Y operator
      ----------                      --------------      --------------
          13                           -0.1257600676        0.0000000000
          16                            0.1257600676        0.0000000000
          20                           -0.9840573209        0.0000000000

       17 elements with absolute value ≤ 1.00D-01 are not printed.

 Printout of coefficients in interval  3.1623E-01 to  1.0000E+00
 ===============================================================

  Coefficient of CSF no.        20 is     -0.98405732   -9.84057321E-01
  Orbital          1   2   3   4
  Spin coupling    1  -1   1  -1

 Printout of coefficients in interval  1.0000E-01 to  3.1623E-01
 ===============================================================

  Coefficient of CSF no.        13 is     -0.12576007   -1.25760068E-01
  Orbital          3   1   2
  Spin coupling    2   1  -1

  Coefficient of CSF no.        16 is      0.12576007    1.25760068E-01
  Orbital          4   1   2
  Spin coupling    2   1  -1

 Norm of printed CI vector ..      1.00000000

 Magnitude of CI coefficients
 ============================
 ( Ranges are relative to norm of vector :  1.00E+00 )

  10- 1 to 10- 0         3    0.10000000E+01      1.0000000000
  Number of coefficients less than 10^-11 times norm is           17


 @ Excited state no:   11 in symmetry 1  ( A  ) - singlet excitation
 -------------------------------------------------------------------

@ Excitation energy :  0.93034941     au
@                       25.316095     eV;   204188.09     cm-1;   2442.6320     kJ / mol

@ Total energy :       -14.635641     au

@ Operator label: XDIPLEN ; Transition moment : -1.09127588E-15 au
@ Oscillator strength (LENGTH)   :  7.38624892E-31  (X-polarization)

@ Operator label: YDIPLEN ; Transition moment :  3.17736441E-18 au
@ Oscillator strength (LENGTH)   :  6.26165131E-36  (Y-polarization)

@ Operator label: ZDIPLEN ; Transition moment :  8.10628738E-17 au
@ Oscillator strength (LENGTH)   :  4.07566817E-33  (Z-polarization)
@ Total oscillator strength (LENGTH)   :  7.42706822E-31

 Eigenvector for state no. 11

      Index(conf)                         Z operator          Y operator
      ----------                      --------------      --------------
           9                            0.6463667408        0.0000000000
          12                            0.7627313569        0.0000000000

       18 elements with absolute value ≤ 1.00D-01 are not printed.

 Printout of coefficients in interval  3.1623E-01 to  1.0000E+00
 ===============================================================

  Coefficient of CSF no.         9 is      0.64636674    6.46366741E-01
  Orbital          1   3   4
  Spin coupling    2   1  -1

  Coefficient of CSF no.        12 is      0.76273136    7.62731357E-01
  Orbital          2   3   4
  Spin coupling    2   1  -1

 Printout of coefficients in interval  1.0000E-01 to  3.1623E-01
 ===============================================================
   ( no coefficients )

 Printout of coefficients in interval  1.0000E-01 to  1.0000E-01
 ===============================================================
   ( no coefficients )

 Norm of printed CI vector ..      0.99954909

 Magnitude of CI coefficients
 ============================
 ( Ranges are relative to norm of vector :  1.00E+00 )

  10- 1 to 10- 0         2    0.99954909E+00      0.9995490864
  10- 2 to 10- 1         2    0.26244141E-03      0.9998115279
  10- 3 to 10- 2         2    0.18847214E-03      1.0000000000
  Number of coefficients less than 10^-11 times norm is           14


 @ Excited state no:   12 in symmetry 1  ( A  ) - singlet excitation
 -------------------------------------------------------------------

@ Excitation energy :  0.93034941     au
@                       25.316095     eV;   204188.09     cm-1;   2442.6320     kJ / mol

@ Total energy :       -14.635641     au

@ Operator label: XDIPLEN ; Transition moment :  2.32083306E-15 au
@ Oscillator strength (LENGTH)   :  3.34073965E-30  (X-polarization)

@ Operator label: YDIPLEN ; Transition moment :  9.31153599E-18 au
@ Oscillator strength (LENGTH)   :  5.37771123E-35  (Y-polarization)

@ Operator label: ZDIPLEN ; Transition moment : -2.10215212E-17 au
@ Oscillator strength (LENGTH)   :  2.74083636E-34  (Z-polarization)
@ Total oscillator strength (LENGTH)   :  3.34106751E-30

 Eigenvector for state no. 12

      Index(conf)                         Z operator          Y operator
      ----------                      --------------      --------------
           2                            0.4068071300        0.0000000000
           3                            0.4800441215        0.0000000000
           4                           -0.4068071300        0.0000000000
           5                           -0.4800441215        0.0000000000
           9                           -0.2949480526        0.0000000000
          12                           -0.3480471908        0.0000000000

       14 elements with absolute value ≤ 1.00D-01 are not printed.

 Printout of coefficients in interval  3.1623E-01 to  1.0000E+00
 ===============================================================

  Coefficient of CSF no.         2 is      0.40680713    4.06807130E-01
  Orbital          1   3
  Spin coupling    2   2

  Coefficient of CSF no.         3 is      0.48004412    4.80044122E-01
  Orbital          2   3
  Spin coupling    2   2

  Coefficient of CSF no.         4 is     -0.40680713   -4.06807130E-01
  Orbital          1   4
  Spin coupling    2   2

  Coefficient of CSF no.         5 is     -0.48004412   -4.80044122E-01
  Orbital          2   4
  Spin coupling    2   2

  Coefficient of CSF no.        12 is     -0.34804719   -3.48047191E-01
  Orbital          2   3   4
  Spin coupling    2   1  -1

 Printout of coefficients in interval  1.0000E-01 to  3.1623E-01
 ===============================================================

  Coefficient of CSF no.         9 is     -0.29494805   -2.94948053E-01
  Orbital          1   3   4
  Spin coupling    2   1  -1

 Norm of printed CI vector ..      1.00000000

 Magnitude of CI coefficients
 ============================
 ( Ranges are relative to norm of vector :  1.00E+00 )

  10- 1 to 10- 0         6    0.10000000E+01      1.0000000000
  Number of coefficients less than 10^-11 times norm is           14


 @ Excited state no:   13 in symmetry 1  ( A  ) - singlet excitation
 -------------------------------------------------------------------

@ Excitation energy :  0.97167852     au
@                       26.440717     eV;   213258.78     cm-1;   2551.1416     kJ / mol

@ Total energy :       -14.594312     au

@ Operator label: XDIPLEN ; Transition moment :  0.25177712     au
@ Oscillator strength (LENGTH)   :  4.10642475E-02  (X-polarization)

@ Operator label: YDIPLEN ; Transition moment : -4.29316930E-16 au
@ Oscillator strength (LENGTH)   :  1.19395339E-31  (Y-polarization)

@ Operator label: ZDIPLEN ; Transition moment : -2.79499142E-16 au
@ Oscillator strength (LENGTH)   :  5.06048684E-32  (Z-polarization)
@ Total oscillator strength (LENGTH)   :  4.10642475E-02

 Eigenvector for state no. 13

      Index(conf)                         Z operator          Y operator
      ----------                      --------------      --------------
          13                            0.7071067812        0.0000000000
          16                            0.7071067812        0.0000000000

       18 elements with absolute value ≤ 1.00D-01 are not printed.

 Printout of coefficients in interval  3.1623E-01 to  1.0000E+00
 ===============================================================

  Coefficient of CSF no.        13 is      0.70710678    7.07106781E-01
  Orbital          3   1   2
  Spin coupling    2   1  -1

  Coefficient of CSF no.        16 is      0.70710678    7.07106781E-01
  Orbital          4   1   2
  Spin coupling    2   1  -1

 Printout of coefficients in interval  1.0000E-01 to  3.1623E-01
 ===============================================================
   ( no coefficients )

 Norm of printed CI vector ..      1.00000000

 Magnitude of CI coefficients
 ============================
 ( Ranges are relative to norm of vector :  1.00E+00 )

  10- 1 to 10- 0         2    0.10000000E+01      1.0000000000
  Number of coefficients less than 10^-11 times norm is           18


 @ Excited state no:   14 in symmetry 1  ( A  ) - singlet excitation
 -------------------------------------------------------------------

@ Excitation energy :  0.97814277     au
@                       26.616619     eV;   214677.52     cm-1;   2568.1135     kJ / mol

@ Total energy :       -14.587848     au

@ Operator label: XDIPLEN ; Transition moment :  4.85996748E-15 au
@ Oscillator strength (LENGTH)   :  1.54020212E-29  (X-polarization)

@ Operator label: YDIPLEN ; Transition moment :  1.18071918E-16 au
@ Oscillator strength (LENGTH)   :  9.09084444E-33  (Y-polarization)

@ Operator label: ZDIPLEN ; Transition moment :  7.08168924E-18 au
@ Oscillator strength (LENGTH)   :  3.27027836E-35  (Z-polarization)
@ Total oscillator strength (LENGTH)   :  1.54111448E-29

 Eigenvector for state no. 14

      Index(conf)                         Z operator          Y operator
      ----------                      --------------      --------------
           2                           -0.4454017744        0.0000000000
           3                           -0.5436006125        0.0000000000
           4                           -0.4454017744        0.0000000000
           5                           -0.5436006125        0.0000000000

       16 elements with absolute value ≤ 1.00D-01 are not printed.

 Printout of coefficients in interval  3.1623E-01 to  1.0000E+00
 ===============================================================

  Coefficient of CSF no.         2 is     -0.44540177   -4.45401774E-01
  Orbital          1   3
  Spin coupling    2   2

  Coefficient of CSF no.         3 is     -0.54360061   -5.43600612E-01
  Orbital          2   3
  Spin coupling    2   2

  Coefficient of CSF no.         4 is     -0.44540177   -4.45401774E-01
  Orbital          1   4
  Spin coupling    2   2

  Coefficient of CSF no.         5 is     -0.54360061   -5.43600612E-01
  Orbital          2   4
  Spin coupling    2   2

 Printout of coefficients in interval  1.0000E-01 to  3.1623E-01
 ===============================================================
   ( no coefficients )

 Norm of printed CI vector ..      0.98776873

 Magnitude of CI coefficients
 ============================
 ( Ranges are relative to norm of vector :  1.00E+00 )

  10- 1 to 10- 0         4    0.98776873E+00      0.9877687332
  10- 2 to 10- 1         2    0.12231267E-01      1.0000000000
  Number of coefficients less than 10^-11 times norm is           14


 @ Excited state no:   15 in symmetry 1  ( A  ) - singlet excitation
 -------------------------------------------------------------------

@ Excitation energy :   1.1744566     au
@                       31.958591     eV;   257763.43     cm-1;   3083.5354     kJ / mol

@ Total energy :       -14.391534     au

@ Operator label: XDIPLEN ; Transition moment : -2.49529867E-17 au
@ Oscillator strength (LENGTH)   :  4.87518160E-34  (X-polarization)

@ Operator label: YDIPLEN ; Transition moment : -1.81249670E-16 au
@ Oscillator strength (LENGTH)   :  2.57217300E-32  (Y-polarization)

@ Operator label: ZDIPLEN ; Transition moment :  4.19148913E-16 au
@ Oscillator strength (LENGTH)   :  1.37556911E-31  (Z-polarization)
@ Total oscillator strength (LENGTH)   :  1.63766159E-31

 Eigenvector for state no. 15

      Index(conf)                         Z operator          Y operator
      ----------                      --------------      --------------
          15                            0.9973801779        0.0000000000

       19 elements with absolute value ≤ 1.00D-01 are not printed.

 Printout of coefficients in interval  3.1623E-01 to  1.0000E+00
 ===============================================================

  Coefficient of CSF no.        15 is      0.99738018    9.97380178E-01
  Orbital          3   2   4
  Spin coupling    2   1  -1

 Printout of coefficients in interval  1.0000E-01 to  3.1623E-01
 ===============================================================
   ( no coefficients )

 Norm of printed CI vector ..      0.99476722

 Magnitude of CI coefficients
 ============================
 ( Ranges are relative to norm of vector :  1.00E+00 )

  10- 1 to 10- 0         1    0.99476722E+00      0.9947672193
  10- 2 to 10- 1         2    0.52263486E-02      0.9999935679
  10- 3 to 10- 2         1    0.64320859E-05      1.0000000000
  Number of coefficients less than 10^-11 times norm is           16

@ Singlet transition operator label: XDIPLEN 
@ STATE NO:   16 *TRANSITION MOMENT: -6.99548494E-16 *ENERGY(eV):   31.958591    
@ STATE NO:   17 *TRANSITION MOMENT:  8.64720836E-17 *ENERGY(eV):   32.931319    
@ STATE NO:   18 *TRANSITION MOMENT: -3.70632876E-17 *ENERGY(eV):   32.931319    
@ STATE NO:   19 *TRANSITION MOMENT:  4.03294268E-17 *ENERGY(eV):   45.640616    

@ Singlet transition operator label: YDIPLEN 
@ STATE NO:   16 *TRANSITION MOMENT: -1.50963636E-16 *ENERGY(eV):   31.958591    
@ STATE NO:   17 *TRANSITION MOMENT: -1.57438106E-02 *ENERGY(eV):   32.931319    
@ STATE NO:   18 *TRANSITION MOMENT:  3.31488608E-03 *ENERGY(eV):   32.931319    
@ STATE NO:   19 *TRANSITION MOMENT:  3.71218087E-17 *ENERGY(eV):   45.640616    

@ Singlet transition operator label: ZDIPLEN 
@ STATE NO:   16 *TRANSITION MOMENT:  3.81766746E-16 *ENERGY(eV):   31.958591    
@ STATE NO:   17 *TRANSITION MOMENT:  3.66449872E-03 *ENERGY(eV):   32.931319    
@ STATE NO:   18 *TRANSITION MOMENT:  1.58211142E-02 *ENERGY(eV):   32.931319    
@ STATE NO:   19 *TRANSITION MOMENT: -3.01212386E-18 *ENERGY(eV):   45.640616    


 **************************************************************************************
 *** @ Excit. operator sym 1 & ref. state sym 1 => excited state symmetry 1  ( A  ) ***
 **************************************************************************************



 @ Excited state no:   16 in symmetry 1  ( A  ) - singlet excitation
 -------------------------------------------------------------------

@ Excitation energy :   1.1744566     au
@                       31.958591     eV;   257763.43     cm-1;   3083.5354     kJ / mol

@ Total energy :       -14.391534     au

@ Operator label: XDIPLEN ; Transition moment : -6.99548494E-16 au
@ Oscillator strength (LENGTH)   :  3.83161071E-31  (X-polarization)

@ Operator label: YDIPLEN ; Transition moment : -1.50963636E-16 au
@ Oscillator strength (LENGTH)   :  1.78439264E-32  (Y-polarization)

@ Operator label: ZDIPLEN ; Transition moment :  3.81766746E-16 au
@ Oscillator strength (LENGTH)   :  1.14114785E-31  (Z-polarization)
@ Total oscillator strength (LENGTH)   :  5.15119783E-31

 Eigenvector for state no. 16

      Index(conf)                         Z operator          Y operator
      ----------                      --------------      --------------
          18                           -0.9971077264        0.0000000000

       19 elements with absolute value ≤ 1.00D-01 are not printed.

 Printout of coefficients in interval  3.1623E-01 to  1.0000E+00
 ===============================================================

  Coefficient of CSF no.        18 is     -0.99710773   -9.97107726E-01
  Orbital          4   2   3
  Spin coupling    2   1  -1

 Printout of coefficients in interval  1.0000E-01 to  3.1623E-01
 ===============================================================
   ( no coefficients )

 Norm of printed CI vector ..      0.99422382

 Magnitude of CI coefficients
 ============================
 ( Ranges are relative to norm of vector :  1.00E+00 )

  10- 1 to 10- 0         1    0.99422382E+00      0.9942238180
  10- 2 to 10- 1         2    0.57679641E-02      0.9999917821
  10- 3 to 10- 2         1    0.82178692E-05      1.0000000000
  Number of coefficients less than 10^-11 times norm is           16


 @ Excited state no:   17 in symmetry 1  ( A  ) - singlet excitation
 -------------------------------------------------------------------

@ Excitation energy :   1.2102038     au
@                       32.931319     eV;   265609.02     cm-1;   3177.3895     kJ / mol

@ Total energy :       -14.355787     au

@ Operator label: XDIPLEN ; Transition moment :  8.64720836E-17 au
@ Oscillator strength (LENGTH)   :  6.03280218E-33  (X-polarization)

@ Operator label: YDIPLEN ; Transition moment : -1.57438106E-02 au
@ Oscillator strength (LENGTH)   :  1.99980178E-04  (Y-polarization)

@ Operator label: ZDIPLEN ; Transition moment :  3.66449872E-03 au
@ Oscillator strength (LENGTH)   :  1.08341885E-05  (Z-polarization)
@ Total oscillator strength (LENGTH)   :  2.10814366E-04

 Eigenvector for state no. 17

      Index(conf)                         Z operator          Y operator
      ----------                      --------------      --------------
          14                            0.9915718303        0.0000000000
          17                            0.1282720010        0.0000000000

       18 elements with absolute value ≤ 1.00D-01 are not printed.

 Printout of coefficients in interval  3.1623E-01 to  1.0000E+00
 ===============================================================

  Coefficient of CSF no.        14 is      0.99157183    9.91571830E-01
  Orbital          3   1   4
  Spin coupling    2   1  -1

 Printout of coefficients in interval  1.0000E-01 to  3.1623E-01
 ===============================================================

  Coefficient of CSF no.        17 is      0.12827200    1.28272001E-01
  Orbital          4   1   3
  Spin coupling    2   1  -1

 Printout of coefficients in interval  1.0000E-01 to  1.0000E-01
 ===============================================================
   ( no coefficients )

 Norm of printed CI vector ..      0.99966840

 Magnitude of CI coefficients
 ============================
 ( Ranges are relative to norm of vector :  1.00E+00 )

  10- 1 to 10- 0         2    0.99966840E+00      0.9996684009
  10- 2 to 10- 1         1    0.32614128E-03      0.9999945422
  10- 3 to 10- 2         1    0.54578444E-05      1.0000000000
  Number of coefficients less than 10^-11 times norm is           16


 @ Excited state no:   18 in symmetry 1  ( A  ) - singlet excitation
 -------------------------------------------------------------------

@ Excitation energy :   1.2102038     au
@                       32.931319     eV;   265609.02     cm-1;   3177.3895     kJ / mol

@ Total energy :       -14.355787     au

@ Operator label: XDIPLEN ; Transition moment : -3.70632876E-17 au
@ Oscillator strength (LENGTH)   :  1.10829434E-33  (X-polarization)

@ Operator label: YDIPLEN ; Transition moment :  3.31488608E-03 au
@ Oscillator strength (LENGTH)   :  8.86552486E-06  (Y-polarization)

@ Operator label: ZDIPLEN ; Transition moment :  1.58211142E-02 au
@ Oscillator strength (LENGTH)   :  2.01948841E-04  (Z-polarization)
@ Total oscillator strength (LENGTH)   :  2.10814366E-04

 Eigenvector for state no. 18

      Index(conf)                         Z operator          Y operator
      ----------                      --------------      --------------
          14                           -0.1062779567        0.0000000000
          17                            0.9941697022        0.0000000000

       18 elements with absolute value ≤ 1.00D-01 are not printed.

 Printout of coefficients in interval  3.1623E-01 to  1.0000E+00
 ===============================================================

  Coefficient of CSF no.        17 is      0.99416970    9.94169702E-01
  Orbital          4   1   3
  Spin coupling    2   1  -1

 Printout of coefficients in interval  1.0000E-01 to  3.1623E-01
 ===============================================================

  Coefficient of CSF no.        14 is     -0.10627796   -1.06277957E-01
  Orbital          3   1   4
  Spin coupling    2   1  -1

 Norm of printed CI vector ..      0.99966840

 Magnitude of CI coefficients
 ============================
 ( Ranges are relative to norm of vector :  1.00E+00 )

  10- 1 to 10- 0         2    0.99966840E+00      0.9996684009
  10- 2 to 10- 1         1    0.32785247E-03      0.9999962533
  10- 3 to 10- 2         1    0.37466559E-05      1.0000000000
  Number of coefficients less than 10^-11 times norm is           16


 @ Excited state no:   19 in symmetry 1  ( A  ) - singlet excitation
 -------------------------------------------------------------------

@ Excitation energy :   1.6772618     au
@                       45.640616     eV;   368116.42     cm-1;   4403.6503     kJ / mol

@ Total energy :       -13.888729     au

@ Operator label: XDIPLEN ; Transition moment :  4.03294268E-17 au
@ Oscillator strength (LENGTH)   :  1.81866918E-33  (X-polarization)

@ Operator label: YDIPLEN ; Transition moment :  3.71218087E-17 au
@ Oscillator strength (LENGTH)   :  1.54087662E-33  (Y-polarization)

@ Operator label: ZDIPLEN ; Transition moment : -3.01212386E-18 au
@ Oscillator strength (LENGTH)   :  1.01450750E-35  (Z-polarization)
@ Total oscillator strength (LENGTH)   :  3.36969087E-33

 Eigenvector for state no. 19

      Index(conf)                         Z operator          Y operator
      ----------                      --------------      --------------
           6                           -0.9954407618        0.0000000000

       19 elements with absolute value ≤ 1.00D-01 are not printed.

 Printout of coefficients in interval  3.1623E-01 to  1.0000E+00
 ===============================================================

  Coefficient of CSF no.         6 is     -0.99544076   -9.95440762E-01
  Orbital          3   4
  Spin coupling    2   2

 Printout of coefficients in interval  1.0000E-01 to  3.1623E-01
 ===============================================================
   ( no coefficients )

 Norm of printed CI vector ..      0.99090231

 Magnitude of CI coefficients
 ============================
 ( Ranges are relative to norm of vector :  1.00E+00 )

  10- 1 to 10- 0         1    0.99090231E+00      0.9909023102
  10- 2 to 10- 1         4    0.90898026E-02      0.9999921128
  10- 3 to 10- 2         1    0.78871782E-05      1.0000000000
  Number of coefficients less than 10^-11 times norm is           14


 Time used in polarization propagator calculation is      0.01 CPU seconds for symmetry 1

  Total CPU  time used in RESPONSE:   0.01 seconds
  Total wall time used in RESPONSE:   0.16 seconds


                   .-------------------------------------------.
                   | End of Dynamic Property Section (RESPONS) |
                   `-------------------------------------------'

  Total CPU  time used in DALTON:   0.08 seconds
  Total wall time used in DALTON:   1.07 seconds

 NOTE:    1 warnings have been issued.
 Check output, result, and error files for "WARNING".

 
     Date and time (Linux)  : Tue Jul  7 17:01:26 2026
     Host name              : n-62-31-22                              
