

     ************************************************************************
     *************** Dalton - An Electronic Structure Program ***************
     ************************************************************************

    This is output from DALTON release Dalton2024.0-dev (2024)
         ( Web site: http://daltonprogram.org )

   ----------------------------------------------------------------------------

    NOTE:
     
    Dalton is an experimental code for the evaluation of molecular
    properties using (MC)SCF, DFT, CI, and CC wave functions.
    The authors accept no responsibility for the performance of
    the code or for the correctness of the results.
     
    The code (in whole or part) is provided under a licence and
    is not to be reproduced for further distribution without
    the written permission of the authors or their representatives.
     
    See the home page "http://daltonprogram.org" for further information.
     
    If results obtained with this code are published,
    the appropriate citations would be both of:
     
       K. Aidas, C. Angeli, K. L. Bak, V. Bakken,
       R. Bast, L. Boman, O. Christiansen, R. Cimiraglia,
       S. Coriani, P. Dahle, E. K. Dalskov, U. Ekstroem,
       T. Enevoldsen, J. J. Eriksen, P. Ettenhuber, B. Fernandez,
       L. Ferrighi, H. Fliegl, L. Frediani, K. Hald, A. Halkier,
       C. Haettig, H. Heiberg, T. Helgaker, A. C. Hennum,
       H. Hettema, E. Hjertenaes, S. Hoest, I.-M. Hoeyvik,
       M. F. Iozzi, B. Jansik, H. J. Aa. Jensen, D. Jonsson,
       P. Joergensen, J. Kauczor, S. Kirpekar,
       T. Kjaergaard, W. Klopper, S. Knecht, R. Kobayashi, H. Koch,
       J. Kongsted, A. Krapp, K. Kristensen, A. Ligabue,
       O. B. Lutnaes, J. I. Melo, K. V. Mikkelsen, R. H. Myhre,
       C. Neiss, C. B. Nielsen, P. Norman, J. Olsen,
       J. M. H. Olsen, A. Osted, M. J. Packer, F. Pawlowski,
       T. B. Pedersen, P. F. Provasi, S. Reine, Z. Rinkevicius,
       T. A. Ruden, K. Ruud, V. Rybkin, P. Salek, C. C. M. Samson,
       A. Sanchez de Meras, T. Saue, S. P. A. Sauer,
       B. Schimmelpfennig, K. Sneskov, A. H. Steindal,
       K. O. Sylvester-Hvid, P. R. Taylor, A. M. Teale,
       E. I. Tellgren, D. P. Tew, A. J. Thorvaldsen, L. Thoegersen,
       O. Vahtras, M. A. Watson, D. J. D. Wilson, M. Ziolkowski
       and H. Agren,
       "The Dalton quantum chemistry program system",
       WIREs Comput. Mol. Sci. 2014, 4:269-284 (doi: 10.1002/wcms.1172)
     
    and
     
       Dalton, a molecular electronic structure program,
       Release Dalton2024.0-dev (2024), see http://daltonprogram.org
   ----------------------------------------------------------------------------

    Authors in alphabetical order (Major contribution(s) in parenthesis):

  Kestutis Aidas,              Vilnius University,        Lithuania   (QM/MM)
  Celestino Angeli,            University of Ferrara,     Italy       (NEVPT2)
  Juan J. Aucar,               Northeast National UniversiArgentina   (LRESC, Relativistic Effects on EFG)
  Keld L. Bak,                 UNI-C,                     Denmark     (AOSOPPA, non-adiabatic coupling, magnetic properties)
  Vebjoern Bakken,             University of Oslo,        Norway      (DALTON; geometry optimizer, symmetry detection)
  Radovan Bast,                UiT The Arctic U. of NorwayNorway      (DALTON installation and execution frameworks)
  Pablo Baudin,                University of Valencia,    Spain       (Cholesky excitation energies)
  Linus Boman,                 NTNU,                      Norway      (Cholesky decomposition and subsystems)
  Bruno N. Cabral Tenorio,     Technical Univ. of Denmark,Denmark     (Lanczos-based CC methods)
  Ove Christiansen,            Aarhus University,         Denmark     (CC module)
  Renzo Cimiraglia,            University of Ferrara,     Italy       (NEVPT2)
  Sonia Coriani,               Technical Univ. of Denmark,Denmark     (CC and RESPONS modules)
  Janusz Cukras,               University of Warsaw,      Poland      (MChD in RESPONS)
  Paal Dahle,                  University of Oslo,        Norway      (Parallelization)
  Erik K. Dalskov,             UNI-C,                     Denmark     (SOPPA)
  Thomas Enevoldsen,           Univ. of Southern Denmark, Denmark     (SOPPA)
  Janus J. Eriksen,            Aarhus University,         Denmark     (Polarizable embedding, TDA)
  Rasmus Faber,                Technical Univ. of Denmark,Denmark     (Vib.avg. NMR w. SOPPA, parallel AO-SOPPA, CVS-CC and EOMCC)
  Tobias Fahleson,             KTH Stockholm,             Sweden      (Damped cubic response)
  Berta Fernandez,             U. of Santiago de CompostelSpain       (Doublet spin, ESR in RESPONS)
  Lara Ferrighi,               Aarhus University,         Denmark     (PCM Cubic response)
  Heike Fliegl,                University of Oslo,        Norway      (CCSD(R12))
  Luca Frediani,               UiT The Arctic U. of NorwayNorway      (PCM)
  Emmanuel Fromager,           Univ. Strasbourg,          France      (MC-srDFT)
  Bin Gao,                     UiT The Arctic U. of NorwayNorway      (Gen1Int library)
  Andre S. P. Gomes,           CNRS/Universite de Lille,  France      (Frozen density embedding)
  Christof Haettig,            Ruhr-University Bochum,    Germany     (CC module)
  Kasper Hald,                 Aarhus University,         Denmark     (CC module)
  Asger Halkier,               Aarhus University,         Denmark     (CC module)
  Frederik Beyer Hansen,       University of Copenhagen,  Denmark     (Parallel AO-SOPPA)
  Erik D. Hedegaard,           Univ. of Southern Denmark, Denmark     (Polarizable embedding, QM/MM, and MC-srDFT)
  Hanne Heiberg,               University of Oslo,        Norway      (Geometry analysis, selected one-electron integrals)
  Trygve Helgaker,             University of Oslo,        Norway      (DALTON; ABACUS, ERI, DFT modules, London, and much more)
  Alf Christian Hennum,        University of Oslo,        Norway      (Parity violation)
  Hinne Hettema,               University of Auckland,    New Zealand (Quadratic response in RESPONS; SIRIUS supersymmetry)
  Andreas E. Hillers-Bendtsen, University of Copenhagen,  Denmark     (MP3)
  Eirik Hjertenaes,            NTNU,                      Norway      (Cholesky decomposition)
  Nicolai Machholdt Hoeyer,    Aarhus University,         Denmark     (MP3)
  Pi A. B. Haase,              University of Copenhagen,  Denmark     (Triplet AO-SOPPA)
  Maria Francesca Iozzi,       University of Oslo,        Norway      (RPA)
  Christoph Jacob,             TU Braunschweig            Germany     (Frozen density embedding)
  Brano Jansik,                Technical Univ. of Ostrava Czech Rep.  (DFT cubic response)
  Hans Joergen Aa. Jensen,     Univ. of Southern Denmark, Denmark     (DALTON; SIRIUS, RESPONS, ABACUS, MC-srDFT, and much more)
  Dan Jonsson,                 UiT The Arctic U. of NorwayNorway      (Cubic response in RESPONS module)
  Poul Joergensen,             Aarhus University,         Denmark     (RESPONS, ABACUS, and CC modules)
  Maciej Kaminski,             University of Warsaw,      Poland      (CPPh in RESPONS)
  Joanna Kauczor,              Linkoeping University,     Sweden      (Complex polarization propagator (CPP) module)
  Sheela Kirpekar,             Univ. of Southern Denmark, Denmark     (Mass-velocity & Darwin integrals)
  Frederik Oersted Kjeldal,    Technical Univ. of Denmark,Denmark     (MP3)
  Erik Kjellgren,              Univ. of Southern Denmark, Denmark     (MC-srDFT)
  Wim Klopper,                 KIT Karlsruhe,             Germany     (R12 code in CC, SIRIUS, and ABACUS modules)
  Stefan Knecht,               ETH Zurich,                Switzerland (Parallel CI and MCSCF, MC-srDFT)
  Rika Kobayashi,              Australian National Univ., Australia   (DIIS in CC, London in MCSCF)
  Henrik Koch,                 NTNU,                      Norway      (CC module, Cholesky decomposition)
  Jacob Kongsted,              Univ. of Southern Denmark, Denmark     (Polarizable embedding, polarizable density embedding, QM/MM)
  Andrea Ligabue,              University of Modena,      Italy       (CTOCD, AOSOPPA)
  Nanna H. List,               Univ. of Southern Denmark, Denmark     (Polarizable embedding)
  Ola B. Lutnaes,              University of Oslo,        Norway      (DFT Hessian)
  Juan I. Melo,                University of Buenos Aires,Argentina   (LRESC, Relativistic Effects on NMR Shieldings)
  Kurt V. Mikkelsen,           University of Copenhagen,  Denmark     (MC-SCRF, QM/MM, and MP3)
  Rolf H. Myhre,               NTNU,                      Norway      (Subsystems and CC3)
  Christian Neiss,             Univ. Erlangen-Nuernberg,  Germany     (CCSD(R12))
  Christian B. Nielsen,        University of Copenhagen,  Denmark     (QM/MM)
  Patrick Norman,              KTH Stockholm,             Sweden      (Cubic response and complex frequency response in RESPONS)
  Jeppe Olsen,                 Aarhus University,         Denmark     (SIRIUS CI/density modules)
  Jogvan Magnus H. Olsen,      Aarhus University,         Denmark     (Polarizable embedding and polarizable density embedding)
  Anders Osted,                Copenhagen University,     Denmark     (QM/MM)
  Martin J. Packer,            University of Sheffield,   UK          (SOPPA)
  Filip Pawlowski,             Kazimierz Wielki UniversityPoland      (CC3)
  Morten N. Pedersen,          Univ. of Southern Denmark, Denmark     (Polarizable embedding)
  Thomas B. Pedersen,          University of Oslo,        Norway      (Cholesky decomposition)
  Patricio F. Provasi,         University of Northeastern,Argentina   (Analysis of coupling constants in localized orbitals)
  Peter Reinholdt,             Univ. of Southern Denmark, Denmark     (Polarizable embedding and polarizable density embedding)
  Zilvinas Rinkevicius,        KTH Stockholm,             Sweden      (open-shell DFT, ESR)
  Elias Rudberg,               KTH Stockholm,             Sweden      (DFT grid and basis info)
  Torgeir A. Ruden,            University of Oslo,        Norway      (Numerical derivatives in ABACUS)
  Kenneth Ruud,                UiT The Arctic U. of NorwayNorway      (DALTON; ABACUS magnetic properties and much more)
  Pawel Salek,                 KTH Stockholm,             Sweden      (DALTON; DFT code)
  Claire C. M. Samson,         University of Karlsruhe    Germany     (Boys localization, r12 integrals in ERI)
  Alfredo Sanchez de Meras,    University of Valencia,    Spain       (CC module, Cholesky decomposition)
  Trond Saue,                  Paul Sabatier University,  France      (direct Fock matrix construction)
  Stephan P. A. Sauer,         University of Copenhagen,  Denmark     (SOPPA(CCSD), SOPPA prop., AOSOPPA, vibrational g-factors)
  Bernd Schimmelpfennig,       Forschungszentrum KarlsruheGermany     (AMFI module)
  Anna K. Schnack-Petersen,    University of Copenhagen,  Denmark     (RPA(D) and HRPA(D) properties in AOSOPPA)
  Kristian Sneskov,            Aarhus University,         Denmark     (Polarizable embedding, QM/MM)
  Arnfinn H. Steindal,         UiT The Arctic U. of NorwayNorway      (parallel QM/MM, polarizable embedding)
  Casper Steinmann,            Aalborg University,        Denmark     (QFIT, polarizable embedding)
  K. O. Sylvester-Hvid,        University of Copenhagen,  Denmark     (MC-SCRF)
  Peter R. Taylor,             VLSCI/Univ. of Melbourne,  Australia   (Symmetry handling ABACUS, integral transformation)
  Andrew M. Teale,             University of Nottingham,  England     (DFT-AC, DFT-D)
  David P. Tew,                University of Bristol,     England     (CCSD(R12))
  Julien Toulouse,             Sorbonne Univ.,            France      (MC-srDFT)
  Olav Vahtras,                KTH Stockholm,             Sweden      (Triplet response, spin-orbit, ESR, TDDFT, open-shell DFT)
  Lucas Visscher,              Vrije Universiteit AmsterdaNetherlands (Frozen density embedding)
  David J. Wilson,             La Trobe University,       Australia   (DFT Hessian and DFT magnetizabilities)
  Luna Zamok,                  University of Copenhagen,  Denmark     (Block Lanczos RPA solver in SOPPA module)
  Hans Agren,                  KTH Stockholm,             Sweden      (SIRIUS module, RESPONS, MC-SCRF solvation)
 --------------------------------------------------------------------------------

     Date and time (Linux)  : Tue Jul  7 17:01:33 2026
     Host name              : n-62-31-4                               

 * Work memory size             :   512000000 =  3.815 gigabytes.

 * Directories for basis set searches:
   1) /work3/jochar/DaltonTests
   2) /zhome/d7/7/119775/My_Codes/Dalton_Release/dalton/build_omp_nov24/basis


Compilation information
-----------------------

 Who compiled             | soco
 Host                     | hpclogin1
 System                   | Linux-6.1.112-1.el9.elrepo.x86_64
 CMake generator          | Unix Makefiles
 Processor                | x86_64
 64-bit integers          | OFF
 MPI                      | OFF
 Fortran compiler         | /appl/intel/2023.2.0.49397/compiler/2023.2.0/linux
                          | /bin/intel64/ifort
 Fortran compiler version | ifort (IFORT) 2021.10.0 20230609
 C compiler               | /appl/intel/2023.2.0.49397/compiler/2023.2.0/linux
                          | /bin/intel64/icc
 C compiler version       | icc (ICC) 2021.10.0 20230609
 C++ compiler             | /appl/intel/2023.2.0.49397/compiler/2023.2.0/linux
                          | /bin/intel64/icpc
 C++ compiler version     | icpc (ICC) 2021.10.0 20230609
 Static linking           | OFF
 Last Git revision        | a531ac4fbf115ebda1c90140ce3fd6aa236a2033
 Git branch               | master
 Configuration time       | 2024-11-14 11:23:30.470039

 * Sequential calculation.


   Content of the .dal input file
 ----------------------------------

**DALTON INPUT
.RUN WAVE FUNCTIONS   !tipo di calcolo
.RUN RESPONSE
**INTEGRALS
.DIPLEN               !integrali dell'operatore dipolo elettrico
**WAVE FUNCTION
.HF
.CI
!*PRINT
!.PRINTL
!   0 11
*SCF INP              !parte da Hartree-Fock
.DOUBLY OCCUPIED
3
.THRESH               !soglia di convergenza
 1.0D-10
*CONFIGURATION INPUT
.SPIN MULTIPLICITY
1
.SYMMETRY
1
.INACTIVE ORBITALS !the inner electrons are kept frozen
1
.CAS SPACE
6
.ELECTRONS
4
**RESPONS
*LINEAR
.THCLR
1.0d-9
.DIPLEN
.SINGLE RESIDUE
.ROOTS
300
**END OF INPUT


   Content of the .mol file
 ----------------------------

BASIS
cc-pVDZ
test VQE
dalton test
Atomtypes=2 Angstrom Nosymmetry
Charge=4.0 Atoms=1
Be    0.0000000000000000  0.0000000000000000  0.0
Charge=1.0 Atoms=2
H     1.3300000000000000  0.0000000000000000  0.0
H    -1.3300000000000000  0.0000000000000000  0.0


       *******************************************************************
       *********** Output from DALTON general input processing ***********
       *******************************************************************

 --------------------------------------------------------------------------------
   Overall default print level:    0
   Print level for DALTON.STAT:    1

    HERMIT 1- and 2-electron integral sections will be executed
    "Old" integral transformation used (limited to max 255 basis functions)
    Wave function sections will be executed (SIRIUS module)
    Dynamic molecular response properties section will be executed (RESPONSE module)
 --------------------------------------------------------------------------------


   ****************************************************************************
   *************** Output of molecule and basis set information ***************
   ****************************************************************************


    The two title cards from your ".mol" input:
    --------------------------------------------------------------------------------
 1: test VQE
 2: dalton test
    --------------------------------------------------------------------------------

  Coordinates are entered in Angstrom and converted to atomic units.
          - Conversion factor : 1 bohr = 0.52917721 A

  Atomic type no.    1
  --------------------
  Nuclear charge:   4.00000
  Number of symmetry independent centers:    1
  Number of basis sets to read;    2
  Basis set file used for this atomic type with Z =   4 :
     "/zhome/d7/7/119775/My_Codes/Dalton_Release/dalton/build_omp_nov24/basis/cc-pVDZ"

  Atomic type no.    2
  --------------------
  Nuclear charge:   1.00000
  Number of symmetry independent centers:    2
  Number of basis sets to read;    2
  Basis set file used for this atomic type with Z =   1 :
     "/zhome/d7/7/119775/My_Codes/Dalton_Release/dalton/build_omp_nov24/basis/cc-pVDZ"


                         SYMGRP: Point group information
                         -------------------------------

@    Point group: C1 


                                 Isotopic Masses
                                 ---------------

                           Be          9.012183
                           H           1.007825
                           H           1.007825

                       Total mass:    11.027833 amu
                       Natural abundance:  99.970 %

 Center-of-mass coordinates (a.u.):    0.000000    0.000000    0.000000
 Center-of-mass coordinates (Angs):    0.000000    0.000000    0.000000


  Atoms and basis sets
  --------------------

  Number of atom types :    2
  Total number of atoms:    3

  Basis set used is "cc-pVDZ" from the basis set library.

  label    atoms   charge   prim   cont     basis
  ----------------------------------------------------------------------
  Be          1    4.0000    26    14      [9s4p1d|3s2p1d]                                    
  H           2    1.0000     7     5      [4s1p|2s1p]                                        
  ----------------------------------------------------------------------
  total:      3    6.0000    40    24
  ----------------------------------------------------------------------
  Spherical harmonic basis used.

  Threshold for neglecting AO integrals:  1.00D-12


  Cartesian Coordinates (a.u.)
  ----------------------------

  Total number of coordinates:    9
  Be      :     1  x   0.0000000000    2  y   0.0000000000    3  z   0.0000000000
  H       :     4  x   2.5133357462    5  y   0.0000000000    6  z   0.0000000000
  H       :     7  x  -2.5133357462    8  y   0.0000000000    9  z   0.0000000000


   Interatomic separations (in Angstrom):
   --------------------------------------

            Be          H           H     
            ------      ------      ------
 Be    :    0.000000
 H     :    1.330000    0.000000
 H     :    1.330000    2.660000    0.000000


  Max    interatomic separation is    2.6600 Angstrom (    5.0267 Bohr)
  between atoms    3 and    2, "H     " and "H     ".

  Min HX interatomic separation is    1.3300 Angstrom (    2.5133 Bohr)


  Bond distances (Angstrom):
  --------------------------

                  atom 1     atom 2       distance
                  ------     ------       --------
  bond distance:  H          Be           1.330000
  bond distance:  H          Be           1.330000


  Bond angles (degrees):
  ----------------------

                  atom 1     atom 2     atom 3         angle
                  ------     ------     ------         -----
  bond angle:     H          Be         H            180.000




 Principal moments of inertia (u*A**2) and principal axes
 --------------------------------------------------------

   IA       0.000000          1.000000    0.000000    0.000000
   IB       3.565483          0.000000    1.000000    0.000000
   IC       3.565483          0.000000    0.000000    1.000000


 Rotational constants
 --------------------

@    The molecule is linear.

               B =       141742.08 MHz     (    4.728007 cm-1)


@  Nuclear repulsion energy :    3.381959617895 Hartree


                     .---------------------------------------.
                     | Starting in Integral Section (HERMIT) |
                     `---------------------------------------'



 ***************************************************************************************
 ****************** Output from **INTEGRALS input processing (HERMIT) ******************
 ***************************************************************************************



    *************************************************************************
    ****************** Output from HERMIT input processing ******************
    *************************************************************************


 Default print level:        1

 Calculation of one- and two-electron Hamiltonian integrals.

 The following one-electron property integrals are calculated as requested:
          - overlap integrals
          - dipole length integrals

 Center of mass  (bohr):      0.000000000000      0.000000000000      0.000000000000
 Operator center (bohr):      0.000000000000      0.000000000000      0.000000000000
 Gauge origin    (bohr):      0.000000000000      0.000000000000      0.000000000000
 Dipole origin   (bohr):      0.000000000000      0.000000000000      0.000000000000

Calculation of 2-electron integrals are postponed until they are needed.


     ************************************************************************
     ************************** Output from HERINT **************************
     ************************************************************************



                      Nuclear contribution to dipole moments
                      --------------------------------------

                 au               Debye          C m (/(10**-30)

      x      0.00000000         0.00000000         0.00000000
      y      0.00000000         0.00000000         0.00000000
      z      0.00000000         0.00000000         0.00000000


  Total CPU  time used in HERMIT:   0.02 seconds
  Total wall time used in HERMIT:   0.07 seconds


                        .----------------------------------.
                        | End of Integral Section (HERMIT) |
                        `----------------------------------'



                   .--------------------------------------------.
                   | Starting in Wave Function Section (SIRIUS) |
                   `--------------------------------------------'


     WARNING  Reference state is required for CI response and CI-NO
     WARNING  ".STATE" was not specified for "*CI INPUT",
     WARNING  the reference state is set to be state no.  1

 *** Output from Huckel module :

     Using EWMO model:          T
     Using EHT  model:          F
     Number of Huckel orbitals each symmetry:    7

 EWMO - Energy Weighted Maximum Overlap - is a Huckel type method,
        which normally is better than Extended Huckel Theory.
 Reference: Linderberg and Ohrn, Propagators in Quantum Chemistry (Wiley, 1973)

 Huckel EWMO eigenvalues for symmetry :  1
           -4.742490      -0.737104      -0.620322      -0.206000      -0.206000
           -0.103312      -0.044772

 **********************************************************************
 *SIRIUS* a direct, restricted step, second order MCSCF program       *
 **********************************************************************

 
     Date and time (Linux)  : Tue Jul  7 17:01:33 2026
     Host name              : n-62-31-4                               

 Title lines from ".mol" input file:
     test VQE
     dalton test

 Print level on unit LUPRI =   2 is   0
 Print level on unit LUW4  =   2 is   5

@    Configuration interaction calculation.

@    CI response calculation.

@    CI type: user specified active spaces.
@              Type: complete active space calculation (CAS).

@    This is a combination run starting with
@              a restricted, closed shell Hartree-Fock calculation


 Initial molecular orbitals are obtained according to
 ".MOSTART EWMO  " input option

     Wave function specification
     ============================
@    Wave function type        --- CI ---
@    Number of closed shell electrons           2
@    Number of electrons in active shells       4
@    Total charge of the molecule               0

@    Spin multiplicity and 2 M_S                1         0
@    Total number of symmetries                 1 (point group: C1 )
@    Reference state symmetry                   1 (irrep name : A  )

     Orbital specifications
     ======================
@    Abelian symmetry species          All |    1
@                                          |  A  
                                       --- |  ---
@    Inactive orbitals                   1 |    1
@    Active orbitals                     6 |    6
@    Secondary orbitals                 17 |   17
@    Total number of orbitals           24 |   24
@    Number of basis functions          24 |   24

      -- Initial occupation of symmetries is determined from user input.                      
      -- Initial occupation of symmetries is :
@    Occupied SCF orbitals               3 |    3

     Optimization information
     ========================
@    Number of configurations               105
@    Number of orbital rotations              0
     ------------------------------------------
@    Total number of variables              105

     Maximum number of CI iterations         25
     Threshold for CI convergence      1.00D-05
     Number of CI roots to converge           1

@    Reference state in CI response calculation :       1


 ***********************************************
 ***** DIIS acceleration of SCF iterations *****
 ***********************************************

 C1-DIIS algorithm; max error vectors =    8

 Iter      Total energy        Error norm    Delta(E)  DIIS dim.
 -----------------------------------------------------------------------------

Calculating AOSUPINT

---> (Re)generating AOTWOINT


     ************************************************************************
     ************************** Output from HERINT **************************
     ************************************************************************


 Threshold for neglecting two-electron integrals:  1.00D-12
 HERMIT - Number of two-electron integrals written:       12262 ( 27.2% )
 HERMIT - Megabytes written:                              0.275

     (Precalculated AO two-electron integrals are transformed to P-supermatrix elements.
      Threshold for discarding integrals :  1.00D-12 )

@  1    -15.7172205870        6.44086D-01   -1.57D+01    1
      Virial theorem: -V/T =      2.002756
@    MULPOP   Be      0.79; H      -0.39; H      -0.39; 
   1  Level shift: doubly occupied orbital energies shifted by -2.00D-01
 -----------------------------------------------------------------------------
@  2    -15.7637386627        1.63059D-01   -4.65D-02    2
      Virial theorem: -V/T =      2.002784
@    MULPOP   Be      0.37; H      -0.19; H      -0.19; 
   2  Level shift: doubly occupied orbital energies shifted by -1.00D-01
 -----------------------------------------------------------------------------
@  3    -15.7672525785        1.96409D-02   -3.51D-03    3
      Virial theorem: -V/T =      2.000677
@    MULPOP   Be      0.23; H      -0.12; H      -0.12; 
   3  Level shift: doubly occupied orbital energies shifted by -2.50D-02
 -----------------------------------------------------------------------------
@  4    -15.7673187437        1.44808D-03   -6.62D-05    4
      Virial theorem: -V/T =      2.000149
@    MULPOP   Be      0.22; H      -0.11; H      -0.11; 
 -----------------------------------------------------------------------------
@  5    -15.7673192244        1.19569D-04   -4.81D-07    5
      Virial theorem: -V/T =      2.000103
@    MULPOP   Be      0.22; H      -0.11; H      -0.11; 
 -----------------------------------------------------------------------------
@  6    -15.7673192276        9.52114D-06   -3.18D-09    6
      Virial theorem: -V/T =      2.000103
@    MULPOP   Be      0.22; H      -0.11; H      -0.11; 
 -----------------------------------------------------------------------------
@  7    -15.7673192276        6.73370D-07   -2.13D-11    7
      Virial theorem: -V/T =      2.000104
@    MULPOP   Be      0.22; H      -0.11; H      -0.11; 
 -----------------------------------------------------------------------------
@  8    -15.7673192276        8.11489D-08   -1.14D-13    8
      Virial theorem: -V/T =      2.000104
@    MULPOP   Be      0.22; H      -0.11; H      -0.11; 
 -----------------------------------------------------------------------------
@  9    -15.7673192276        1.45192D-09    0.00D+00    8
      Virial theorem: -V/T =      2.000104
@    MULPOP   Be      0.22; H      -0.11; H      -0.11; 
 -----------------------------------------------------------------------------
@ 10    -15.7673192276        2.17721D-10   -7.11D-15    8
      Virial theorem: -V/T =      2.000104
@    MULPOP   Be      0.22; H      -0.11; H      -0.11; 
 -----------------------------------------------------------------------------
@ 11    -15.7673192276        3.32062D-11    3.55D-15    8

@ *** DIIS converged in  11 iterations !
@     Converged SCF energy, gradient:    -15.767319227642    3.32D-11
    - total time used in SIRFCK :              0.00 seconds

 --- Writing SIRIFC interface file

--------------------------------------------------------------------------------


     .--------------------------------------------------.
     | HF-SCF KT IPs [a.u. & eV] from Koopmans' theorem |
     `--------------------------------------------------'


     HF-SCF KT symmetry 1 ( A  ) in point group C1  -- 3 principal poles with pole strength 1

   ============  ============  ============
       4.679745      0.488952      0.446625
     127.342350     13.305069     12.153289
   ============  ============  ============

@ Summary of HF-SCF KT ionization potentials [eV]:

@ Symmetry 1 (A  ) :   127.342      13.305      12.153

  === End of HF-SCF KT output ===
--------------------------------------------------------------------------------


 CPU and wall time for SCF :       0.085       0.421


 ----- Output from SIRIUS CI module (CICTL) -----




 2-el. integral transformation level 0: Total CPU and WALL times (sec)       0.013       0.038

 (CIST1) 8 lowest diagonal elements:

 Element no. Config.no.    Active energy      Total energy

         1 :          1     -3.9471306817    -15.7673192276
         2 :         16     -3.6799238007    -15.5001123467
         3 :         17     -3.6799238007    -15.5001123467
         4 :         26     -3.6254785615    -15.4456671075
         5 :         27     -3.6254785615    -15.4456671075
         6 :         19     -3.5656544579    -15.3858430039
         7 :         29     -3.5283722284    -15.3485607744
         8 :         22     -3.5078019472    -15.3279904932

Lowest 1 elements are used as separate start CI vectors.


 Convergence threshold for CI optimization :     0.00001000


 CI root     eigenvalue        residual norm

    1      -15.7673192276        0.0612276593

 CI root     eigenvalue        residual norm

    1      -15.7710398419        0.0119466152

 CI root     eigenvalue        residual norm

    1      -15.7712846355        0.0024311514

 CI root     eigenvalue        residual norm

    1      -15.7712916599        0.0004855904

 CI root     eigenvalue        residual norm

    1      -15.7712919391        0.0000571614

 CI root     eigenvalue        residual norm

    1      -15.7712919420        0.0000103580

 CI root     eigenvalue        residual norm

    1      -15.7712919421        0.0000008689 converged

 The requested root number is now converged.


 *** CI converged in  7 iterations.



@ Final CI energies and residuals in symmetry 1 (irrep A  )
@    1      -15.771291942118314       8.69D-07

 Writing SIRIFC interface file for CI root no. 1

 CPU and wall time for CI :       0.024       0.130


                       .-----------------------------------.
                       | --- Final results from SIRIUS --- |
                       `-----------------------------------'


@    Spin multiplicity:           1
@    Spatial symmetry:            1 ( irrep  A   in C1  )
@    Total charge of molecule:    0

@    This was a CI calculation.
@    State number:                1

@    Final CI energy:             -15.771291942118
@    Nuclear repulsion:             3.381959617895
@    Electronic energy:           -19.153251560013

@    Final gradient norm:           0.000000868920

 
     Date and time (Linux)  : Tue Jul  7 17:01:34 2026
     Host name              : n-62-31-4                               

 Occupancies of natural orbitals
 -------------------------------

 Symmetry 1  ( A  ) -- Total occupation in this symmetry is   6.000000000

   2.000000000   1.993820883   1.997234510   0.002528749   0.002528749
   0.002824446   0.001062662

  Effective numbers of unpaired electrons this symmetry Eqs. 1) and 2):  0.04  0.00

  Total effective number of unpaired electrons :
  Eq. 1) sum(i) [(2 - n_i) n_i]    =  0.0357
  Eq. 2) sum(i) [(2 - n_i) n_i]**2 =  0.0003
 (Reference: M. Head-Gordon, Chemical Physics Letters 372 (2003) 508-511)

  --- NOTE THAT THE OCCUPATION NUMBERS ARE FOR ANALYSIS PURPOSE ONLY
  --- The orbital coefficients have NOT been transformed
  --- to ordered natural orbitals.

File label for MO orbitals:   7Jul26    CIORB  

 (Only coefficients > 0.0100 are printed.)

 Molecular orbitals for symmetry species 1  (A  )
 ------------------------------------------------

    Orbital         1        2        3        4        5        6        7
   1 Be  :1s     1.0010  -0.0416   0.0000  -0.0000  -0.0000  -0.1054   0.0000
   2 Be  :1s     0.0026   0.3322   0.0000  -0.0000  -0.0000  -0.1746   0.0000
   3 Be  :1s    -0.0034   0.1569  -0.0000  -0.0000  -0.0000   2.3602   0.0000
   4 Be  :2px    0.0000   0.0000  -0.4033   0.0000  -0.0000  -0.0000   0.1981
   5 Be  :2py   -0.0000   0.0000  -0.0000   0.0228  -0.2516  -0.0000   0.0000
   6 Be  :2pz    0.0000   0.0000  -0.0000   0.2516   0.0228   0.0000   0.0000
   7 Be  :2px   -0.0000  -0.0000  -0.1288   0.0000  -0.0000   0.0000  -2.3709
   8 Be  :2py   -0.0000   0.0000  -0.0000   0.0745  -0.8223  -0.0000   0.0000
   9 Be  :2pz    0.0000   0.0000  -0.0000   0.8223   0.0745   0.0000   0.0000
  12 Be  :3d0   -0.0006  -0.0175  -0.0000   0.0000   0.0000  -0.0473   0.0000
  14 Be  :3d2+   0.0010   0.0303   0.0000  -0.0000  -0.0000   0.0820  -0.0000
  15 H   :1s     0.0018   0.4686  -0.5263  -0.0000   0.0000  -0.3032   0.0815
  16 H   :1s    -0.0015  -0.0626   0.1386   0.0000  -0.0000  -0.9850   1.3243
  17 H   :2px   -0.0009  -0.0195   0.0146  -0.0000  -0.0000   0.0301  -0.0196
  18 H   :2py   -0.0000   0.0000  -0.0000   0.0010  -0.0111  -0.0000   0.0000
  19 H   :2pz    0.0000   0.0000  -0.0000   0.0111   0.0010   0.0000   0.0000
  20 H   :1s     0.0018   0.4686   0.5263   0.0000   0.0000  -0.3032  -0.0815
  21 H   :1s    -0.0015  -0.0626  -0.1386  -0.0000  -0.0000  -0.9850  -1.3243
  22 H   :2px    0.0009   0.0195   0.0146   0.0000   0.0000  -0.0301  -0.0196
  23 H   :2py   -0.0000   0.0000  -0.0000   0.0010  -0.0111  -0.0000   0.0000
  24 H   :2pz    0.0000   0.0000  -0.0000   0.0111   0.0010   0.0000   0.0000

    Orbital         8        9       10       11       12       13       14
   1 Be  :1s    -0.6189   0.0000  -0.0000   0.0000   0.2482  -0.0000   0.0000
   2 Be  :1s    -1.6988   0.0000  -0.0000   0.0000   0.3942   0.0000   0.0000
   3 Be  :1s     0.6278   0.0000  -0.0000   0.0000   1.9713   0.0000   0.0000
   4 Be  :2px    0.0000   0.0000   0.0000  -1.4128  -0.0000   0.0000   0.0000
   5 Be  :2py    0.0000   1.2025   0.0116   0.0000   0.0000   0.0000   0.0000
   6 Be  :2pz   -0.0000  -0.0116   1.2025   0.0000  -0.0000   0.0000  -0.0000
   7 Be  :2px   -0.0000   0.0000   0.0000  -1.8243   0.0000   0.0000  -0.0000
   8 Be  :2py    0.0000  -0.9253  -0.0089   0.0000   0.0000   0.0000  -0.0000
   9 Be  :2pz   -0.0000   0.0089  -0.9253   0.0000  -0.0000  -0.0000  -0.0000
  10 Be  :3d2-   0.0000  -0.0000  -0.0000  -0.0000   0.0000   0.0000   0.9769
  12 Be  :3d0   -0.0506  -0.0000   0.0000   0.0000  -0.5125  -0.0000  -0.0000
  13 Be  :3d1+   0.0000   0.0000  -0.0000   0.0000   0.0000   0.9769   0.0000
  14 Be  :3d2+   0.0877   0.0000  -0.0000  -0.0000   0.8877   0.0000   0.0000
  15 H   :1s     0.0145  -0.0000  -0.0000  -0.1290   0.5894  -0.0000  -0.0000
  16 H   :1s     0.6033   0.0000   0.0000   2.5464  -2.2145  -0.0000   0.0000
  17 H   :2px    0.0091   0.0000  -0.0000   0.0274   0.1113   0.0000   0.0000
  18 H   :2py    0.0000   0.0242   0.0002   0.0000   0.0000   0.0000   0.0275
  19 H   :2pz   -0.0000  -0.0002   0.0242   0.0000  -0.0000   0.0275  -0.0000
  20 H   :1s     0.0145  -0.0000   0.0000   0.1290   0.5894  -0.0000  -0.0000
  21 H   :1s     0.6033   0.0000  -0.0000  -2.5464  -2.2145   0.0000   0.0000
  22 H   :2px   -0.0091  -0.0000   0.0000   0.0274  -0.1113   0.0000   0.0000
  23 H   :2py    0.0000   0.0242   0.0002   0.0000   0.0000   0.0000  -0.0275
  24 H   :2pz   -0.0000  -0.0002   0.0242   0.0000  -0.0000  -0.0275  -0.0000

    Orbital        15       16       17
   4 Be  :2px    0.0000   0.0000   0.4833
   7 Be  :2px    0.0000   0.0000  -1.5337
  11 Be  :3d1-   1.0000   0.0000   0.0000
  12 Be  :3d0    0.0000   0.8660   0.0000
  14 Be  :3d2+   0.0000   0.5000  -0.0000
  15 H   :1s     0.0000   0.0000  -1.9654
  16 H   :1s     0.0000  -0.0000   2.9268
  17 H   :2px    0.0000  -0.0000  -0.0831
  20 H   :1s     0.0000   0.0000   1.9654
  21 H   :1s     0.0000  -0.0000  -2.9268
  22 H   :2px    0.0000   0.0000  -0.0831

 Printout of CI-coefficients abs greater than 0.05000 for root  1
 *** NOTE: this root is the CI reference state ***

 Printout of coefficients in interval  3.1623E-01 to  1.0000E+00
 ===============================================================

  Coefficient of CSF no.         1 is      0.99763788    9.97637885E-01
  Orbital          1   2
  Spin coupling    2   2

 Printout of coefficients in interval  1.0000E-01 to  3.1623E-01
 ===============================================================
   ( no coefficients )

 Printout of coefficients in interval  5.0000E-02 to  1.0000E-01
 ===============================================================
   ( no coefficients )

 Norm of printed CI vector ..      0.99528135

 Magnitude of CI coefficients
 ============================
 ( Ranges are relative to norm of vector :  1.00E+00 )

  10- 1 to 10- 0         1    0.99528135E+00      0.9952813494
  10- 2 to 10- 1         7    0.45846483E-02      0.9998659977
  10- 3 to 10- 2        10    0.13204976E-03      0.9999980475
  10- 4 to 10- 3         7    0.19525361E-05      1.0000000000
  Number of coefficients less than 10^-11 times norm is           80

  Total CPU  time used in SIRIUS :   0.13 seconds
  Total wall time used in SIRIUS :   0.65 seconds

 
     Date and time (Linux)  : Tue Jul  7 17:01:34 2026
     Host name              : n-62-31-4                               


                     .---------------------------------------.
                     | End of Wave Function Section (SIRIUS) |
                     `---------------------------------------'



                 .------------------------------------------------.
                 | Starting in Dynamic Property Section (RESPONS) |
                 `------------------------------------------------'


 ----------------------------------------------------------------------------------------
  RESPONSE  -  an MCSCF, MC-srDFT, DFT, SOPPA and SOPPA-srDFT response property program
 ----------------------------------------------------------------------------------------

 This is a configuration interaction response calculation.
   Note: this is equivalent to a CI sum-over-states calculation of response properties.


 -------- OUTPUT FROM RESPONSE INPUT PROCESSING --------




  Linear Response single residue calculation
 -------------------------------------------


    4 input options by user.

 Print level                                    : IPRPP  =   2
 Maximum number of iterations for eigenval.eqs. : MAXITP =  60
 Threshold for convergence of eigenvalue eqs.   : THCPP  = 1.000D-03
 Maximum iterations in optimal orbital algorithm: MAXITO =   5

    300 Excitation energies are calculated for symmetry no.    1

      3 property residues are calculated with labels:

               XDIPLEN 
               YDIPLEN 
               ZDIPLEN 

 Old direct access AO file found, SORTA skipped.

 2-el. integral transformation level 4: Total CPU and WALL times (sec)       0.017       0.115


 CI energy            :      -15.771291942118314
 -- inactive part     :      -11.820188545976887
 --   active part     :       -3.951103396141427
 -- nuclear repulsion :        3.381959617894736


                         *******************************
                         *** CI response calculation ***
                         *******************************

 ----------------------------------------------------------------
 ----- Linear response calculation
 ----- Symmetry of excitation/property operator(s)    1  ( A  )
 ----------------------------------------------------------------

 Number of excitations of this symmetry          300
 Number of response properties of this symmetry    0
 Number of C6/C8 properties of this symmetry       0


 Perturbation symmetry.     KSYMOP:           1
 Perturbation spin symmetry.TRPLET:           F
 Orbital variables.         KZWOPT:           0
 Configuration variables.   KZCONF:         105
 Total number of variables. KZVAR :         105

 ** RSPVAR ** Number of PP start vectors  300
   exceeds the maximum number of variables  104
   Number of start vectors reset to number of variables



 --- EXCITATION ENERGIES AND TRANSITION MOMENT CALCULATION (MCTDHF) ---

 Operator symmetry = 1  ( A  ); triplet =   F

RSPORT:    1 out of  105 new trial vectors linear dependent

 ** RSPCTL MICROITERATION NUMBER    1

      Root  Residual tot.,    conf., and orb.    Bnorm      Eigenvalue
      ----------------------------------------------------------------
         1    1.35714D-15  1.36D-15  0.00D+00  1.00D+00    2.57023D-01
         2    3.04408D-15  3.04D-15  0.00D+00  1.00D+00    2.57023D-01
         3    2.97734D-15  2.98D-15  0.00D+00  1.00D+00    3.36394D-01
         4    3.74138D-15  3.74D-15  0.00D+00  1.00D+00    3.36394D-01
         5    2.56560D-15  2.57D-15  0.00D+00  1.00D+00    3.89004D-01
         6    1.55791D-15  1.56D-15  0.00D+00  1.00D+00    4.08935D-01
         7    1.74047D-15  1.74D-15  0.00D+00  1.00D+00    4.37670D-01
         8    4.38740D-15  4.39D-15  0.00D+00  1.00D+00    4.75724D-01
         9    3.61756D-15  3.62D-15  0.00D+00  1.00D+00    5.31017D-01
        10    4.08826D-15  4.09D-15  0.00D+00  1.00D+00    5.31017D-01
        11    3.54838D-15  3.55D-15  0.00D+00  1.00D+00    5.55955D-01
        12    4.02343D-15  4.02D-15  0.00D+00  1.00D+00    5.61008D-01
        13    2.83187D-15  2.83D-15  0.00D+00  1.00D+00    6.65446D-01
        14    4.37727D-15  4.38D-15  0.00D+00  1.00D+00    6.65446D-01
        15    2.86983D-15  2.87D-15  0.00D+00  1.00D+00    6.78728D-01
        16    3.48769D-15  3.49D-15  0.00D+00  1.00D+00    6.78728D-01
        17    2.44222D-15  2.44D-15  0.00D+00  1.00D+00    7.07591D-01
        18    3.95819D-15  3.96D-15  0.00D+00  1.00D+00    7.07591D-01
        19    2.74687D-15  2.75D-15  0.00D+00  1.00D+00    7.33429D-01
        20    2.67575D-15  2.68D-15  0.00D+00  1.00D+00    7.33429D-01
        21    4.41058D-15  4.41D-15  0.00D+00  1.00D+00    7.69818D-01
        22    3.25615D-15  3.26D-15  0.00D+00  1.00D+00    8.28733D-01
        23    3.55746D-15  3.56D-15  0.00D+00  1.00D+00    8.56867D-01
        24    2.27804D-15  2.28D-15  0.00D+00  1.00D+00    8.61051D-01
        25    2.98920D-15  2.99D-15  0.00D+00  1.00D+00    8.61051D-01
        26    2.55382D-15  2.55D-15  0.00D+00  1.00D+00    8.67131D-01
        27    3.29307D-15  3.29D-15  0.00D+00  1.00D+00    8.67131D-01
        28    3.86511D-15  3.87D-15  0.00D+00  1.00D+00    8.74582D-01
        29    4.98953D-15  4.99D-15  0.00D+00  1.00D+00    8.80504D-01
        30    2.69615D-15  2.70D-15  0.00D+00  1.00D+00    9.15015D-01
        31    2.86225D-15  2.86D-15  0.00D+00  1.00D+00    9.83600D-01
        32    4.16292D-15  4.16D-15  0.00D+00  1.00D+00    9.83600D-01
        33    3.17134D-15  3.17D-15  0.00D+00  1.00D+00    9.86465D-01
        34    4.07340D-15  4.07D-15  0.00D+00  1.00D+00    9.86465D-01
        35    4.07960D-15  4.08D-15  0.00D+00  1.00D+00    1.05366D+00
        36    3.78931D-15  3.79D-15  0.00D+00  1.00D+00    1.05366D+00
        37    3.02784D-15  3.03D-15  0.00D+00  1.00D+00    1.05393D+00
        38    3.30677D-15  3.31D-15  0.00D+00  1.00D+00    1.05393D+00
        39    3.88378D-15  3.88D-15  0.00D+00  1.00D+00    1.07142D+00
        40    3.01003D-15  3.01D-15  0.00D+00  1.00D+00    1.07228D+00
        41    3.82693D-15  3.83D-15  0.00D+00  1.00D+00    1.10076D+00
        42    3.98660D-15  3.99D-15  0.00D+00  1.00D+00    1.10076D+00
        43    3.10185D-15  3.10D-15  0.00D+00  1.00D+00    1.10089D+00
        44    3.84867D-15  3.85D-15  0.00D+00  1.00D+00    1.10089D+00
        45    5.01556D-15  5.02D-15  0.00D+00  1.00D+00    1.16036D+00
        46    3.48681D-15  3.49D-15  0.00D+00  1.00D+00    1.16049D+00
        47    3.15489D-15  3.15D-15  0.00D+00  1.00D+00    1.18402D+00
        48    5.48384D-15  5.48D-15  0.00D+00  1.00D+00    1.18402D+00
        49    2.16398D-15  2.16D-15  0.00D+00  1.00D+00    1.19481D+00
        50    5.21778D-15  5.22D-15  0.00D+00  1.00D+00    1.19481D+00
        51    5.62585D-15  5.63D-15  0.00D+00  1.00D+00    1.22493D+00
        52    6.64394D-15  6.64D-15  0.00D+00  1.00D+00    1.23294D+00
        53    3.68376D-15  3.68D-15  0.00D+00  1.00D+00    1.23322D+00
        54    5.13102D-15  5.13D-15  0.00D+00  1.00D+00    1.23954D+00
        55    3.96672D-15  3.97D-15  0.00D+00  1.00D+00    1.26252D+00
        56    4.98734D-15  4.99D-15  0.00D+00  1.00D+00    1.26438D+00
        57    2.86537D-15  2.87D-15  0.00D+00  1.00D+00    1.27121D+00
        58    5.81720D-15  5.82D-15  0.00D+00  1.00D+00    1.27121D+00
        59    2.92394D-15  2.92D-15  0.00D+00  1.00D+00    1.27471D+00
        60    3.36978D-15  3.37D-15  0.00D+00  1.00D+00    1.28140D+00
        61    4.13026D-15  4.13D-15  0.00D+00  1.00D+00    1.28140D+00
        62    5.34652D-15  5.35D-15  0.00D+00  1.00D+00    1.28235D+00
        63    3.41539D-15  3.42D-15  0.00D+00  1.00D+00    1.31321D+00
        64    4.94409D-15  4.94D-15  0.00D+00  1.00D+00    1.31321D+00
        65    3.87773D-15  3.88D-15  0.00D+00  1.00D+00    1.31682D+00
        66    3.71213D-15  3.71D-15  0.00D+00  1.00D+00    1.32028D+00
        67    3.54905D-15  3.55D-15  0.00D+00  1.00D+00    1.32028D+00
        68    3.70390D-15  3.70D-15  0.00D+00  1.00D+00    1.32216D+00
        69    4.48156D-15  4.48D-15  0.00D+00  1.00D+00    1.38927D+00
        70    4.93448D-15  4.93D-15  0.00D+00  1.00D+00    1.38927D+00
        71    3.72726D-15  3.73D-15  0.00D+00  1.00D+00    1.39052D+00
        72    4.53260D-15  4.53D-15  0.00D+00  1.00D+00    1.39052D+00
        73    4.21213D-15  4.21D-15  0.00D+00  1.00D+00    1.42499D+00
        74    4.90960D-15  4.91D-15  0.00D+00  1.00D+00    1.42499D+00
        75    3.32339D-15  3.32D-15  0.00D+00  1.00D+00    1.43992D+00
        76    5.81866D-15  5.82D-15  0.00D+00  1.00D+00    1.43992D+00
        77    3.37879D-15  3.38D-15  0.00D+00  1.00D+00    1.49544D+00
        78    4.47960D-15  4.48D-15  0.00D+00  1.00D+00    1.49544D+00
        79    4.09872D-15  4.10D-15  0.00D+00  1.00D+00    1.50473D+00
        80    5.84958D-15  5.85D-15  0.00D+00  1.00D+00    1.50473D+00
        81    7.01153D-15  7.01D-15  0.00D+00  1.00D+00    1.52862D+00
        82    4.87347D-15  4.87D-15  0.00D+00  1.00D+00    1.53686D+00
        83    6.64463D-15  6.64D-15  0.00D+00  1.00D+00    1.56336D+00
        84    3.67077D-15  3.67D-15  0.00D+00  1.00D+00    1.63430D+00
        85    9.86555D-15  9.87D-15  0.00D+00  1.00D+00    1.64639D+00
        86    8.19554D-15  8.20D-15  0.00D+00  1.00D+00    1.71593D+00
        87    9.41301D-15  9.41D-15  0.00D+00  1.00D+00    1.71593D+00
        88    6.02520D-15  6.03D-15  0.00D+00  1.00D+00    1.75997D+00
        89    1.14068D-14  1.14D-14  0.00D+00  1.00D+00    1.75997D+00
        90    6.25284D-15  6.25D-15  0.00D+00  1.00D+00    1.77212D+00
        91    7.39904D-15  7.40D-15  0.00D+00  1.00D+00    1.77212D+00
        92    8.55880D-15  8.56D-15  0.00D+00  1.00D+00    1.81893D+00
        93    4.23529D-15  4.24D-15  0.00D+00  1.00D+00    1.87410D+00
        94    7.29071D-15  7.29D-15  0.00D+00  1.00D+00    1.87410D+00
        95    1.08044D-14  1.08D-14  0.00D+00  1.00D+00    1.90634D+00
        96    4.37821D-15  4.38D-15  0.00D+00  1.00D+00    1.93771D+00
        97    5.00877D-15  5.01D-15  0.00D+00  1.00D+00    1.98983D+00
        98    7.05854D-15  7.06D-15  0.00D+00  1.00D+00    1.98983D+00
        99    5.42085D-15  5.42D-15  0.00D+00  1.00D+00    2.00873D+00
       100    1.27044D-14  1.27D-14  0.00D+00  1.00D+00    2.01832D+00
       101    1.35359D-14  1.35D-14  0.00D+00  1.00D+00    2.01832D+00
       102    5.90495D-15  5.90D-15  0.00D+00  1.00D+00    2.17524D+00
       103    7.04036D-15  7.04D-15  0.00D+00  1.00D+00    2.17524D+00
       104    6.02695D-15  6.03D-15  0.00D+00  1.00D+00    2.29409D+00
       105    1.21616D-15  1.22D-15  0.00D+00  1.00D+00   -2.57023D-01

 *** THE REQUESTED  104 SOLUTION VECTORS CONVERGED

 Convergence of RSP solution vectors, threshold = 1.00D-03
 ---------------------------------------------------------------
 (dimension of paired reduced space:  208)
 RSP solution vector no.    1; norm of residual   1.36D-15
 RSP solution vector no.    2; norm of residual   3.04D-15
 RSP solution vector no.    3; norm of residual   2.98D-15
 RSP solution vector no.    4; norm of residual   3.74D-15
 RSP solution vector no.    5; norm of residual   2.57D-15
 RSP solution vector no.    6; norm of residual   1.56D-15
 RSP solution vector no.    7; norm of residual   1.74D-15
 RSP solution vector no.    8; norm of residual   4.39D-15
 RSP solution vector no.    9; norm of residual   3.62D-15
 RSP solution vector no.   10; norm of residual   4.09D-15
 RSP solution vector no.   11; norm of residual   3.55D-15
 RSP solution vector no.   12; norm of residual   4.02D-15
 RSP solution vector no.   13; norm of residual   2.83D-15
 RSP solution vector no.   14; norm of residual   4.38D-15
 RSP solution vector no.   15; norm of residual   2.87D-15
 RSP solution vector no.   16; norm of residual   3.49D-15
 RSP solution vector no.   17; norm of residual   2.44D-15
 RSP solution vector no.   18; norm of residual   3.96D-15
 RSP solution vector no.   19; norm of residual   2.75D-15
 RSP solution vector no.   20; norm of residual   2.68D-15
 RSP solution vector no.   21; norm of residual   4.41D-15
 RSP solution vector no.   22; norm of residual   3.26D-15
 RSP solution vector no.   23; norm of residual   3.56D-15
 RSP solution vector no.   24; norm of residual   2.28D-15
 RSP solution vector no.   25; norm of residual   2.99D-15
 RSP solution vector no.   26; norm of residual   2.55D-15
 RSP solution vector no.   27; norm of residual   3.29D-15
 RSP solution vector no.   28; norm of residual   3.87D-15
 RSP solution vector no.   29; norm of residual   4.99D-15
 RSP solution vector no.   30; norm of residual   2.70D-15
 RSP solution vector no.   31; norm of residual   2.86D-15
 RSP solution vector no.   32; norm of residual   4.16D-15
 RSP solution vector no.   33; norm of residual   3.17D-15
 RSP solution vector no.   34; norm of residual   4.07D-15
 RSP solution vector no.   35; norm of residual   4.08D-15
 RSP solution vector no.   36; norm of residual   3.79D-15
 RSP solution vector no.   37; norm of residual   3.03D-15
 RSP solution vector no.   38; norm of residual   3.31D-15
 RSP solution vector no.   39; norm of residual   3.88D-15
 RSP solution vector no.   40; norm of residual   3.01D-15
 RSP solution vector no.   41; norm of residual   3.83D-15
 RSP solution vector no.   42; norm of residual   3.99D-15
 RSP solution vector no.   43; norm of residual   3.10D-15
 RSP solution vector no.   44; norm of residual   3.85D-15
 RSP solution vector no.   45; norm of residual   5.02D-15
 RSP solution vector no.   46; norm of residual   3.49D-15
 RSP solution vector no.   47; norm of residual   3.15D-15
 RSP solution vector no.   48; norm of residual   5.48D-15
 RSP solution vector no.   49; norm of residual   2.16D-15
 RSP solution vector no.   50; norm of residual   5.22D-15
 RSP solution vector no.   51; norm of residual   5.63D-15
 RSP solution vector no.   52; norm of residual   6.64D-15
 RSP solution vector no.   53; norm of residual   3.68D-15
 RSP solution vector no.   54; norm of residual   5.13D-15
 RSP solution vector no.   55; norm of residual   3.97D-15
 RSP solution vector no.   56; norm of residual   4.99D-15
 RSP solution vector no.   57; norm of residual   2.87D-15
 RSP solution vector no.   58; norm of residual   5.82D-15
 RSP solution vector no.   59; norm of residual   2.92D-15
 RSP solution vector no.   60; norm of residual   3.37D-15
 RSP solution vector no.   61; norm of residual   4.13D-15
 RSP solution vector no.   62; norm of residual   5.35D-15
 RSP solution vector no.   63; norm of residual   3.42D-15
 RSP solution vector no.   64; norm of residual   4.94D-15
 RSP solution vector no.   65; norm of residual   3.88D-15
 RSP solution vector no.   66; norm of residual   3.71D-15
 RSP solution vector no.   67; norm of residual   3.55D-15
 RSP solution vector no.   68; norm of residual   3.70D-15
 RSP solution vector no.   69; norm of residual   4.48D-15
 RSP solution vector no.   70; norm of residual   4.93D-15
 RSP solution vector no.   71; norm of residual   3.73D-15
 RSP solution vector no.   72; norm of residual   4.53D-15
 RSP solution vector no.   73; norm of residual   4.21D-15
 RSP solution vector no.   74; norm of residual   4.91D-15
 RSP solution vector no.   75; norm of residual   3.32D-15
 RSP solution vector no.   76; norm of residual   5.82D-15
 RSP solution vector no.   77; norm of residual   3.38D-15
 RSP solution vector no.   78; norm of residual   4.48D-15
 RSP solution vector no.   79; norm of residual   4.10D-15
 RSP solution vector no.   80; norm of residual   5.85D-15
 RSP solution vector no.   81; norm of residual   7.01D-15
 RSP solution vector no.   82; norm of residual   4.87D-15
 RSP solution vector no.   83; norm of residual   6.64D-15
 RSP solution vector no.   84; norm of residual   3.67D-15
 RSP solution vector no.   85; norm of residual   9.87D-15
 RSP solution vector no.   86; norm of residual   8.20D-15
 RSP solution vector no.   87; norm of residual   9.41D-15
 RSP solution vector no.   88; norm of residual   6.03D-15
 RSP solution vector no.   89; norm of residual   1.14D-14
 RSP solution vector no.   90; norm of residual   6.25D-15
 RSP solution vector no.   91; norm of residual   7.40D-15
 RSP solution vector no.   92; norm of residual   8.56D-15
 RSP solution vector no.   93; norm of residual   4.24D-15
 RSP solution vector no.   94; norm of residual   7.29D-15
 RSP solution vector no.   95; norm of residual   1.08D-14
 RSP solution vector no.   96; norm of residual   4.38D-15
 RSP solution vector no.   97; norm of residual   5.01D-15
 RSP solution vector no.   98; norm of residual   7.06D-15
 RSP solution vector no.   99; norm of residual   5.42D-15
 RSP solution vector no.  100; norm of residual   1.27D-14
 RSP solution vector no.  101; norm of residual   1.35D-14
 RSP solution vector no.  102; norm of residual   5.90D-15
 RSP solution vector no.  103; norm of residual   7.04D-15
 RSP solution vector no.  104; norm of residual   6.03D-15

 *** RSPCTL MICROITERATIONS CONVERGED

@ Singlet transition operator label: XDIPLEN 
@ STATE NO:    1 *TRANSITION MOMENT:  2.83435810E-16 *ENERGY(eV):   6.9939548    
@ STATE NO:    2 *TRANSITION MOMENT: -8.30742251E-16 *ENERGY(eV):   6.9939548    
@ STATE NO:    3 *TRANSITION MOMENT:  1.15886268E-15 *ENERGY(eV):   9.1537472    
@ STATE NO:    4 *TRANSITION MOMENT: -2.61597403E-16 *ENERGY(eV):   9.1537472    
@ STATE NO:    5 *TRANSITION MOMENT:  0.84173658     *ENERGY(eV):   10.585335    
@ STATE NO:    6 *TRANSITION MOMENT:  1.67546812E-13 *ENERGY(eV):   11.127684    
@ STATE NO:    7 *TRANSITION MOMENT:  2.61426300E-13 *ENERGY(eV):   11.909612    
@ STATE NO:    8 *TRANSITION MOMENT:  0.60820443     *ENERGY(eV):   12.945112    
@ STATE NO:    9 *TRANSITION MOMENT: -2.94536967E-16 *ENERGY(eV):   14.449700    
@ STATE NO:   10 *TRANSITION MOMENT:  3.83776795E-16 *ENERGY(eV):   14.449700    
@ STATE NO:   11 *TRANSITION MOMENT:  2.46051923E-14 *ENERGY(eV):   15.128308    
@ STATE NO:   12 *TRANSITION MOMENT: -2.48109030E-16 *ENERGY(eV):   15.265801    
@ STATE NO:   13 *TRANSITION MOMENT: -1.92192386E-16 *ENERGY(eV):   18.107694    
@ STATE NO:   14 *TRANSITION MOMENT: -1.66591532E-16 *ENERGY(eV):   18.107694    
@ STATE NO:   15 *TRANSITION MOMENT:  1.12290616E-16 *ENERGY(eV):   18.469131    

@ Singlet transition operator label: YDIPLEN 
@ STATE NO:    1 *TRANSITION MOMENT: -5.87348083E-15 *ENERGY(eV):   6.9939548    
@ STATE NO:    2 *TRANSITION MOMENT: -1.89088268E-14 *ENERGY(eV):   6.9939548    
@ STATE NO:    3 *TRANSITION MOMENT: -0.67504438     *ENERGY(eV):   9.1537472    
@ STATE NO:    4 *TRANSITION MOMENT:  -1.2015081     *ENERGY(eV):   9.1537472    
@ STATE NO:    5 *TRANSITION MOMENT: -2.01633134E-15 *ENERGY(eV):   10.585335    
@ STATE NO:    6 *TRANSITION MOMENT:  8.51835776E-16 *ENERGY(eV):   11.127684    
@ STATE NO:    7 *TRANSITION MOMENT:  3.46085501E-16 *ENERGY(eV):   11.909612    
@ STATE NO:    8 *TRANSITION MOMENT:  8.99386108E-15 *ENERGY(eV):   12.945112    
@ STATE NO:    9 *TRANSITION MOMENT:  6.33093180E-17 *ENERGY(eV):   14.449700    
@ STATE NO:   10 *TRANSITION MOMENT: -5.19185335E-17 *ENERGY(eV):   14.449700    
@ STATE NO:   11 *TRANSITION MOMENT:  4.95278872E-16 *ENERGY(eV):   15.128308    
@ STATE NO:   12 *TRANSITION MOMENT:  1.40689631E-16 *ENERGY(eV):   15.265801    
@ STATE NO:   13 *TRANSITION MOMENT:  1.18865177E-15 *ENERGY(eV):   18.107694    
@ STATE NO:   14 *TRANSITION MOMENT:  1.57922764E-16 *ENERGY(eV):   18.107694    
@ STATE NO:   15 *TRANSITION MOMENT: -2.77048388E-02 *ENERGY(eV):   18.469131    

@ Singlet transition operator label: ZDIPLEN 
@ STATE NO:    1 *TRANSITION MOMENT: -1.59017200E-14 *ENERGY(eV):   6.9939548    
@ STATE NO:    2 *TRANSITION MOMENT:  4.31426702E-15 *ENERGY(eV):   6.9939548    
@ STATE NO:    3 *TRANSITION MOMENT:   1.3388948     *ENERGY(eV):   9.1537472    
@ STATE NO:    4 *TRANSITION MOMENT: -0.89705206     *ENERGY(eV):   9.1537472    
@ STATE NO:    5 *TRANSITION MOMENT:  2.32301816E-16 *ENERGY(eV):   10.585335    
@ STATE NO:    6 *TRANSITION MOMENT:  1.36556862E-15 *ENERGY(eV):   11.127684    
@ STATE NO:    7 *TRANSITION MOMENT: -1.09155697E-17 *ENERGY(eV):   11.909612    
@ STATE NO:    8 *TRANSITION MOMENT:  1.64497590E-15 *ENERGY(eV):   12.945112    
@ STATE NO:    9 *TRANSITION MOMENT:  2.53931878E-16 *ENERGY(eV):   14.449700    
@ STATE NO:   10 *TRANSITION MOMENT: -3.42339894E-17 *ENERGY(eV):   14.449700    
@ STATE NO:   11 *TRANSITION MOMENT: -6.07766729E-16 *ENERGY(eV):   15.128308    
@ STATE NO:   12 *TRANSITION MOMENT: -8.66663037E-17 *ENERGY(eV):   15.265801    
@ STATE NO:   13 *TRANSITION MOMENT: -1.53767200E-16 *ENERGY(eV):   18.107694    
@ STATE NO:   14 *TRANSITION MOMENT: -2.74260571E-15 *ENERGY(eV):   18.107694    
@ STATE NO:   15 *TRANSITION MOMENT:  2.52407293E-02 *ENERGY(eV):   18.469131    


 **************************************************************************************
 *** @ Excit. operator sym 1 & ref. state sym 1 => excited state symmetry 1  ( A  ) ***
 **************************************************************************************



 @ Excited state no:    1 in symmetry 1  ( A  ) - singlet excitation
 -------------------------------------------------------------------

@ Excitation energy :  0.25702312     au
@                       6.9939548     eV;   56410.053     cm-1;   674.81409     kJ / mol

@ Total energy :       -15.514269     au

@ Operator label: XDIPLEN ; Transition moment :  2.83435810E-16 au
@ Oscillator strength (LENGTH)   :  1.37654485E-32  (X-polarization)

@ Operator label: YDIPLEN ; Transition moment : -5.87348083E-15 au
@ Oscillator strength (LENGTH)   :  5.91115081E-30  (Y-polarization)

@ Operator label: ZDIPLEN ; Transition moment : -1.59017200E-14 au
@ Oscillator strength (LENGTH)   :  4.33280487E-29  (Z-polarization)
@ Total oscillator strength (LENGTH)   :  4.92529650E-29

 Eigenvector for state no.  1

      Index(conf)                         Z operator          Y operator
      ----------                      --------------      --------------
          16                            0.9524221553        0.0000000000
          17                           -0.2363989093        0.0000000000
          78                            0.1013728517        0.0000000000
          79                            0.1268615982        0.0000000000

      101 elements with absolute value ≤ 1.00D-01 are not printed.

 Printout of coefficients in interval  3.1623E-01 to  1.0000E+00
 ===============================================================

  Coefficient of CSF no.        16 is      0.95242216    9.52422155E-01
  Orbital          1   2   3
  Spin coupling    2   1  -1

 Printout of coefficients in interval  1.0000E-01 to  3.1623E-01
 ===============================================================

  Coefficient of CSF no.        17 is     -0.23639891   -2.36398909E-01
  Orbital          1   2   4
  Spin coupling    2   1  -1

  Coefficient of CSF no.        78 is      0.10137285    1.01372852E-01
  Orbital          1   2   3   5
  Spin coupling    1   1  -1  -1

  Coefficient of CSF no.        79 is      0.12686160    1.26861598E-01
  Orbital          1   2   3   5
  Spin coupling    1  -1   1  -1

 Norm of printed CI vector ..      0.98936273

 Magnitude of CI coefficients
 ============================
 ( Ranges are relative to norm of vector :  1.00E+00 )

  10- 1 to 10- 0         4    0.98936273E+00      0.9893627264
  10- 2 to 10- 1         8    0.10314967E-01      0.9996776929
  10- 3 to 10- 2        10    0.32162056E-03      0.9999993135
  10- 4 to 10- 3         2    0.68651952E-06      1.0000000000
  Number of coefficients less than 10^-11 times norm is           81


 @ Excited state no:    2 in symmetry 1  ( A  ) - singlet excitation
 -------------------------------------------------------------------

@ Excitation energy :  0.25702312     au
@                       6.9939548     eV;   56410.053     cm-1;   674.81409     kJ / mol

@ Total energy :       -15.514269     au

@ Operator label: XDIPLEN ; Transition moment : -8.30742251E-16 au
@ Oscillator strength (LENGTH)   :  1.18253370E-31  (X-polarization)

@ Operator label: YDIPLEN ; Transition moment : -1.89088268E-14 au
@ Oscillator strength (LENGTH)   :  6.12646695E-29  (Y-polarization)

@ Operator label: ZDIPLEN ; Transition moment :  4.31426702E-15 au
@ Oscillator strength (LENGTH)   :  3.18929704E-30  (Z-polarization)
@ Total oscillator strength (LENGTH)   :  6.45722199E-29

 Eigenvector for state no.  2

      Index(conf)                         Z operator          Y operator
      ----------                      --------------      --------------
          16                           -0.2427032328        0.0000000000
          17                           -0.9508351839        0.0000000000
          80                           -0.1012039394        0.0000000000
          81                           -0.1266502153        0.0000000000

      101 elements with absolute value ≤ 1.00D-01 are not printed.

 Printout of coefficients in interval  3.1623E-01 to  1.0000E+00
 ===============================================================

  Coefficient of CSF no.        17 is     -0.95083518   -9.50835184E-01
  Orbital          1   2   4
  Spin coupling    2   1  -1

 Printout of coefficients in interval  1.0000E-01 to  3.1623E-01
 ===============================================================

  Coefficient of CSF no.        16 is     -0.24270323   -2.42703233E-01
  Orbital          1   2   3
  Spin coupling    2   1  -1

  Coefficient of CSF no.        80 is     -0.10120394   -1.01203939E-01
  Orbital          1   2   4   5
  Spin coupling    1   1  -1  -1

  Coefficient of CSF no.        81 is     -0.12665022   -1.26650215E-01
  Orbital          1   2   4   5
  Spin coupling    1  -1   1  -1

 Printout of coefficients in interval  1.0000E-01 to  1.0000E-01
 ===============================================================
   ( no coefficients )

 Norm of printed CI vector ..      0.98927492

 Magnitude of CI coefficients
 ============================
 ( Ranges are relative to norm of vector :  1.00E+00 )

  10- 1 to 10- 0         4    0.98927492E+00      0.9892749206
  10- 2 to 10- 1         8    0.10390403E-01      0.9996653231
  10- 3 to 10- 2        10    0.33395324E-03      0.9999992764
  10- 4 to 10- 3         2    0.72362419E-06      1.0000000000
  Number of coefficients less than 10^-11 times norm is           81


 @ Excited state no:    3 in symmetry 1  ( A  ) - singlet excitation
 -------------------------------------------------------------------

@ Excitation energy :  0.33639403     au
@                       9.1537472     eV;   73829.955     cm-1;   883.20239     kJ / mol

@ Total energy :       -15.434898     au

@ Operator label: XDIPLEN ; Transition moment :  1.15886268E-15 au
@ Oscillator strength (LENGTH)   :  3.01176427E-31  (X-polarization)

@ Operator label: YDIPLEN ; Transition moment : -0.67504438     au
@ Oscillator strength (LENGTH)   :  0.10219312      (Y-polarization)

@ Operator label: ZDIPLEN ; Transition moment :   1.3388948     au
@ Oscillator strength (LENGTH)   :  0.40202209      (Z-polarization)
@ Total oscillator strength (LENGTH)   :  0.50421521    

 Eigenvector for state no.  3

      Index(conf)                         Z operator          Y operator
      ----------                      --------------      --------------
          26                            0.8382895886        0.0000000000
          27                            0.5224250501        0.0000000000

      103 elements with absolute value ≤ 1.00D-01 are not printed.

 Printout of coefficients in interval  3.1623E-01 to  1.0000E+00
 ===============================================================

  Coefficient of CSF no.        26 is      0.83828959    8.38289589E-01
  Orbital          2   1   3
  Spin coupling    2   1  -1

  Coefficient of CSF no.        27 is      0.52242505    5.22425050E-01
  Orbital          2   1   4
  Spin coupling    2   1  -1

 Printout of coefficients in interval  1.0000E-01 to  3.1623E-01
 ===============================================================
   ( no coefficients )

 Printout of coefficients in interval  1.0000E-01 to  1.0000E-01
 ===============================================================
   ( no coefficients )

 Norm of printed CI vector ..      0.97565737

 Magnitude of CI coefficients
 ============================
 ( Ranges are relative to norm of vector :  1.00E+00 )

  10- 1 to 10- 0         2    0.97565737E+00      0.9756573672
  10- 2 to 10- 1        11    0.24154392E-01      0.9998117596
  10- 3 to 10- 2         9    0.18820808E-03      0.9999999677
  10- 4 to 10- 3         1    0.23254064E-07      0.9999999910
  10- 5 to 10- 4         1    0.90314754E-08      1.0000000000
  Number of coefficients less than 10^-11 times norm is           81


 @ Excited state no:    4 in symmetry 1  ( A  ) - singlet excitation
 -------------------------------------------------------------------

@ Excitation energy :  0.33639403     au
@                       9.1537472     eV;   73829.955     cm-1;   883.20239     kJ / mol

@ Total energy :       -15.434898     au

@ Operator label: XDIPLEN ; Transition moment : -2.61597403E-16 au
@ Oscillator strength (LENGTH)   :  1.53470136E-32  (X-polarization)

@ Operator label: YDIPLEN ; Transition moment :  -1.2015081     au
@ Oscillator strength (LENGTH)   :  0.32375049      (Y-polarization)

@ Operator label: ZDIPLEN ; Transition moment : -0.89705206     au
@ Oscillator strength (LENGTH)   :  0.18046472      (Z-polarization)
@ Total oscillator strength (LENGTH)   :  0.50421521    

 Eigenvector for state no.  4

      Index(conf)                         Z operator          Y operator
      ----------                      --------------      --------------
          26                           -0.6599128554        0.0000000000
          27                            0.7349642103        0.0000000000

      103 elements with absolute value ≤ 1.00D-01 are not printed.

 Printout of coefficients in interval  3.1623E-01 to  1.0000E+00
 ===============================================================

  Coefficient of CSF no.        26 is     -0.65991286   -6.59912855E-01
  Orbital          2   1   3
  Spin coupling    2   1  -1

  Coefficient of CSF no.        27 is      0.73496421    7.34964210E-01
  Orbital          2   1   4
  Spin coupling    2   1  -1

 Printout of coefficients in interval  1.0000E-01 to  3.1623E-01
 ===============================================================
   ( no coefficients )

 Printout of coefficients in interval  1.0000E-01 to  1.0000E-01
 ===============================================================
   ( no coefficients )

 Norm of printed CI vector ..      0.97565737

 Magnitude of CI coefficients
 ============================
 ( Ranges are relative to norm of vector :  1.00E+00 )

  10- 1 to 10- 0         2    0.97565737E+00      0.9756573672
  10- 2 to 10- 1        10    0.23967558E-01      0.9996249255
  10- 3 to 10- 2        10    0.37504217E-03      0.9999999677
  10- 4 to 10- 3         2    0.32285539E-07      1.0000000000
  Number of coefficients less than 10^-11 times norm is           81


 @ Excited state no:    5 in symmetry 1  ( A  ) - singlet excitation
 -------------------------------------------------------------------

@ Excitation energy :  0.38900393     au
@                       10.585335     eV;   85376.494     cm-1;   1021.3297     kJ / mol

@ Total energy :       -15.382288     au

@ Operator label: XDIPLEN ; Transition moment :  0.84173658     au
@ Oscillator strength (LENGTH)   :  0.18374483      (X-polarization)

@ Operator label: YDIPLEN ; Transition moment : -2.01633134E-15 au
@ Oscillator strength (LENGTH)   :  1.05435420E-30  (Y-polarization)

@ Operator label: ZDIPLEN ; Transition moment :  2.32301816E-16 au
@ Oscillator strength (LENGTH)   :  1.39948401E-32  (Z-polarization)
@ Total oscillator strength (LENGTH)   :  0.18374483    

 Eigenvector for state no.  5

      Index(conf)                         Z operator          Y operator
      ----------                      --------------      --------------
          19                            0.9774036125        0.0000000000
          32                            0.1123500587        0.0000000000
          56                            0.1467834968        0.0000000000

      102 elements with absolute value ≤ 1.00D-01 are not printed.

 Printout of coefficients in interval  3.1623E-01 to  1.0000E+00
 ===============================================================

  Coefficient of CSF no.        19 is      0.97740361    9.77403612E-01
  Orbital          1   2   5
  Spin coupling    2   1  -1

 Printout of coefficients in interval  1.0000E-01 to  3.1623E-01
 ===============================================================

  Coefficient of CSF no.        32 is      0.11235006    1.12350059E-01
  Orbital          2   1   6
  Spin coupling    2   1  -1

  Coefficient of CSF no.        56 is      0.14678350    1.46783497E-01
  Orbital          5   1   2
  Spin coupling    2   1  -1

 Norm of printed CI vector ..      0.98948575

 Magnitude of CI coefficients
 ============================
 ( Ranges are relative to norm of vector :  1.00E+00 )

  10- 1 to 10- 0         3    0.98948575E+00      0.9894857523
  10- 2 to 10- 1         8    0.10422388E-01      0.9999081398
  10- 3 to 10- 2         5    0.91860159E-04      1.0000000000
  Number of coefficients less than 10^-11 times norm is           89


 @ Excited state no:    6 in symmetry 1  ( A  ) - singlet excitation
 -------------------------------------------------------------------

@ Excitation energy :  0.40893488     au
@                       11.127684     eV;   89750.832     cm-1;   1073.6584     kJ / mol

@ Total energy :       -15.362357     au

@ Operator label: XDIPLEN ; Transition moment :  1.67546812E-13 au
@ Oscillator strength (LENGTH)   :  7.65306209E-27  (X-polarization)

@ Operator label: YDIPLEN ; Transition moment :  8.51835776E-16 au
@ Oscillator strength (LENGTH)   :  1.97822029E-31  (Y-polarization)

@ Operator label: ZDIPLEN ; Transition moment :  1.36556862E-15 au
@ Oscillator strength (LENGTH)   :  5.08381757E-31  (Z-polarization)
@ Total oscillator strength (LENGTH)   :  7.65376829E-27

 Eigenvector for state no.  6

      Index(conf)                         Z operator          Y operator
      ----------                      --------------      --------------
           2                            0.1127689811        0.0000000000
           3                           -0.1521703222        0.0000000000
           4                            0.1127689811        0.0000000000
           5                           -0.1521703222        0.0000000000
           7                           -0.1866350999        0.0000000000
          22                            0.1597045918        0.0000000000
          29                            0.9247639407        0.0000000000

       98 elements with absolute value ≤ 1.00D-01 are not printed.

 Printout of coefficients in interval  3.1623E-01 to  1.0000E+00
 ===============================================================

  Coefficient of CSF no.        29 is      0.92476394    9.24763941E-01
  Orbital          2   1   5
  Spin coupling    2   1  -1

 Printout of coefficients in interval  1.0000E-01 to  3.1623E-01
 ===============================================================

  Coefficient of CSF no.         2 is      0.11276898    1.12768981E-01
  Orbital          1   3
  Spin coupling    2   2

  Coefficient of CSF no.         3 is     -0.15217032   -1.52170322E-01
  Orbital          2   3
  Spin coupling    2   2

  Coefficient of CSF no.         4 is      0.11276898    1.12768981E-01
  Orbital          1   4
  Spin coupling    2   2

  Coefficient of CSF no.         5 is     -0.15217032   -1.52170322E-01
  Orbital          2   4
  Spin coupling    2   2

  Coefficient of CSF no.         7 is     -0.18663510   -1.86635100E-01
  Orbital          1   5
  Spin coupling    2   2

  Coefficient of CSF no.        22 is      0.15970459    1.59704592E-01
  Orbital          1   2   6
  Spin coupling    2   1  -1

 Norm of printed CI vector ..      0.98727186

 Magnitude of CI coefficients
 ============================
 ( Ranges are relative to norm of vector :  1.00E+00 )

  10- 1 to 10- 0         7    0.98727186E+00      0.9872718632
  10- 2 to 10- 1         9    0.12513308E-01      0.9997851715
  10- 3 to 10- 2         7    0.21481228E-03      0.9999999838
  10- 5 to 10- 4         2    0.16199421E-07      1.0000000000
  Number of coefficients less than 10^-11 times norm is           80


 @ Excited state no:    7 in symmetry 1  ( A  ) - singlet excitation
 -------------------------------------------------------------------

@ Excitation energy :  0.43767020     au
@                       11.909612     eV;   96057.504     cm-1;   1149.1029     kJ / mol

@ Total energy :       -15.333622     au

@ Operator label: XDIPLEN ; Transition moment :  2.61426300E-13 au
@ Oscillator strength (LENGTH)   :  1.99413368E-26  (X-polarization)

@ Operator label: YDIPLEN ; Transition moment :  3.46085501E-16 au
@ Oscillator strength (LENGTH)   :  3.49480159E-32  (Y-polarization)

@ Operator label: ZDIPLEN ; Transition moment : -1.09155697E-17 au
@ Oscillator strength (LENGTH)   :  3.47655038E-35  (Z-polarization)
@ Total oscillator strength (LENGTH)   :  1.99413717E-26

 Eigenvector for state no.  7

      Index(conf)                         Z operator          Y operator
      ----------                      --------------      --------------
          11                           -0.1055721066        0.0000000000
          22                            0.9656095318        0.0000000000
          29                           -0.1218282733        0.0000000000

      102 elements with absolute value ≤ 1.00D-01 are not printed.

 Printout of coefficients in interval  3.1623E-01 to  1.0000E+00
 ===============================================================

  Coefficient of CSF no.        22 is      0.96560953    9.65609532E-01
  Orbital          1   2   6
  Spin coupling    2   1  -1

 Printout of coefficients in interval  1.0000E-01 to  3.1623E-01
 ===============================================================

  Coefficient of CSF no.        11 is     -0.10557211   -1.05572107E-01
  Orbital          1   6
  Spin coupling    2   2

  Coefficient of CSF no.        29 is     -0.12182827   -1.21828273E-01
  Orbital          2   1   5
  Spin coupling    2   1  -1

 Norm of printed CI vector ..      0.95838937

 Magnitude of CI coefficients
 ============================
 ( Ranges are relative to norm of vector :  1.00E+00 )

  10- 1 to 10- 0         3    0.95838937E+00      0.9583893658
  10- 2 to 10- 1        15    0.41516445E-01      0.9999058106
  10- 3 to 10- 2         7    0.94189399E-04      1.0000000000
  Number of coefficients less than 10^-11 times norm is           80


 @ Excited state no:    8 in symmetry 1  ( A  ) - singlet excitation
 -------------------------------------------------------------------

@ Excitation energy :  0.47572414     au
@                       12.945112     eV;   104409.38     cm-1;   1249.0135     kJ / mol

@ Total energy :       -15.295568     au

@ Operator label: XDIPLEN ; Transition moment :  0.60820443     au
@ Oscillator strength (LENGTH)   :  0.11731758      (X-polarization)

@ Operator label: YDIPLEN ; Transition moment :  8.99386108E-15 au
@ Oscillator strength (LENGTH)   :  2.56540705E-29  (Y-polarization)

@ Operator label: ZDIPLEN ; Transition moment :  1.64497590E-15 au
@ Oscillator strength (LENGTH)   :  8.58189136E-31  (Z-polarization)
@ Total oscillator strength (LENGTH)   :  0.11731758    

 Eigenvector for state no.  8

      Index(conf)                         Z operator          Y operator
      ----------                      --------------      --------------
          19                            0.1191705499        0.0000000000
          25                            0.1130654616        0.0000000000
          32                           -0.9801941455        0.0000000000
          66                           -0.1007877980        0.0000000000

      101 elements with absolute value ≤ 1.00D-01 are not printed.

 Printout of coefficients in interval  3.1623E-01 to  1.0000E+00
 ===============================================================

  Coefficient of CSF no.        32 is     -0.98019415   -9.80194145E-01
  Orbital          2   1   6
  Spin coupling    2   1  -1

 Printout of coefficients in interval  1.0000E-01 to  3.1623E-01
 ===============================================================

  Coefficient of CSF no.        19 is      0.11917055    1.19170550E-01
  Orbital          1   2   5
[...]
  Orbital          3   6
  Spin coupling    2   2

  Coefficient of CSF no.        14 is      0.38582633    3.85826334E-01
  Orbital          4   6
  Spin coupling    2   2

  Coefficient of CSF no.        71 is      0.81923400    8.19233999E-01
  Orbital          6   3   4
  Spin coupling    2   1  -1

 Printout of coefficients in interval  1.0000E-01 to  3.1623E-01
 ===============================================================

  Coefficient of CSF no.        92 is      0.12063310    1.20633105E-01
  Orbital          2   3   4   6
  Spin coupling    1   1  -1  -1

 Norm of printed CI vector ..      0.98342061

 Magnitude of CI coefficients
 ============================
 ( Ranges are relative to norm of vector :  1.00E+00 )

  10- 1 to 10- 0         4    0.98342061E+00      0.9834206116
  10- 2 to 10- 1         7    0.16343479E-01      0.9997640911
  10- 3 to 10- 2         9    0.23590895E-03      1.0000000000
  Number of coefficients less than 10^-11 times norm is           85


 @ Excited state no:   98 in symmetry 1  ( A  ) - singlet excitation
 -------------------------------------------------------------------

@ Excitation energy :   1.9898276     au
@                       54.145964     eV;   436716.68     cm-1;   5224.2916     kJ / mol

@ Total energy :       -13.781464     au

@ Operator label: XDIPLEN ; Transition moment :  1.97757965E-16 au
@ Oscillator strength (LENGTH)   :  5.18790676E-32  (X-polarization)

@ Operator label: YDIPLEN ; Transition moment : -1.85604243E-15 au
@ Oscillator strength (LENGTH)   :  4.56982947E-30  (Y-polarization)

@ Operator label: ZDIPLEN ; Transition moment : -2.99001586E-16 au
@ Oscillator strength (LENGTH)   :  1.18596310E-31  (Z-polarization)
@ Total oscillator strength (LENGTH)   :  4.74030485E-30

 Eigenvector for state no. 98

      Index(conf)                         Z operator          Y operator
      ----------                      --------------      --------------
          13                            0.5227147236        0.0000000000
          14                           -0.5227147236        0.0000000000
          71                            0.6499283815        0.0000000000

      102 elements with absolute value ≤ 1.00D-01 are not printed.

 Printout of coefficients in interval  3.1623E-01 to  1.0000E+00
 ===============================================================

  Coefficient of CSF no.        13 is      0.52271472    5.22714724E-01
  Orbital          3   6
  Spin coupling    2   2

  Coefficient of CSF no.        14 is     -0.52271472   -5.22714724E-01
  Orbital          4   6
  Spin coupling    2   2

  Coefficient of CSF no.        71 is      0.64992838    6.49928382E-01
  Orbital          6   3   4
  Spin coupling    2   1  -1

 Printout of coefficients in interval  1.0000E-01 to  3.1623E-01
 ===============================================================
   ( no coefficients )

 Norm of printed CI vector ..      0.96886827

 Magnitude of CI coefficients
 ============================
 ( Ranges are relative to norm of vector :  1.00E+00 )

  10- 1 to 10- 0         3    0.96886827E+00      0.9688682657
  10- 2 to 10- 1        10    0.31023040E-01      0.9998913056
  10- 3 to 10- 2         7    0.10869440E-03      1.0000000000
  Number of coefficients less than 10^-11 times norm is           85


 @ Excited state no:   99 in symmetry 1  ( A  ) - singlet excitation
 -------------------------------------------------------------------

@ Excitation energy :   2.0087338     au
@                       54.660426     eV;   440866.10     cm-1;   5273.9297     kJ / mol

@ Total energy :       -13.762558     au

@ Operator label: XDIPLEN ; Transition moment : -8.52920203E-17 au
@ Oscillator strength (LENGTH)   :  9.74199552E-33  (X-polarization)

@ Operator label: YDIPLEN ; Transition moment :  3.11561722E-16 au
@ Oscillator strength (LENGTH)   :  1.29992804E-31  (Y-polarization)

@ Operator label: ZDIPLEN ; Transition moment : -1.26143862E-17 au
@ Oscillator strength (LENGTH)   :  2.13090146E-34  (Z-polarization)
@ Total oscillator strength (LENGTH)   :  1.39947890E-31

 Eigenvector for state no. 99

      Index(conf)                         Z operator          Y operator
      ----------                      --------------      --------------
          13                            0.6704442990        0.0000000000
          14                            0.6704442990        0.0000000000
          15                           -0.2462190171        0.0000000000
          43                            0.1134368384        0.0000000000
          53                            0.1134368384        0.0000000000

      100 elements with absolute value ≤ 1.00D-01 are not printed.

 Printout of coefficients in interval  3.1623E-01 to  1.0000E+00
 ===============================================================

  Coefficient of CSF no.        13 is      0.67044430    6.70444299E-01
  Orbital          3   6
  Spin coupling    2   2

  Coefficient of CSF no.        14 is      0.67044430    6.70444299E-01
  Orbital          4   6
  Spin coupling    2   2

 Printout of coefficients in interval  1.0000E-01 to  3.1623E-01
 ===============================================================

  Coefficient of CSF no.        15 is     -0.24621902   -2.46219017E-01
  Orbital          5   6
  Spin coupling    2   2

  Coefficient of CSF no.        43 is      0.11343684    1.13436838E-01
  Orbital          3   2   6
  Spin coupling    2   1  -1

  Coefficient of CSF no.        53 is      0.11343684    1.13436838E-01
  Orbital          4   2   6
  Spin coupling    2   1  -1

 Norm of printed CI vector ..      0.98535075

 Magnitude of CI coefficients
 ============================
 ( Ranges are relative to norm of vector :  1.00E+00 )

  10- 1 to 10- 0         5    0.98535075E+00      0.9853507532
  10- 2 to 10- 1         8    0.14274697E-01      0.9996254504
  10- 3 to 10- 2        10    0.37339054E-03      0.9999988409
  10- 4 to 10- 3         2    0.11590772E-05      1.0000000000
  Number of coefficients less than 10^-11 times norm is           80


 @ Excited state no:  100 in symmetry 1  ( A  ) - singlet excitation
 -------------------------------------------------------------------

@ Excitation energy :   2.0183155     au
@                       54.921159     eV;   442969.05     cm-1;   5299.0866     kJ / mol

@ Total energy :       -13.752976     au

@ Operator label: XDIPLEN ; Transition moment :  1.08916947E-16 au
@ Oscillator strength (LENGTH)   :  1.59620519E-32  (X-polarization)

@ Operator label: YDIPLEN ; Transition moment :  2.44299142E-16 au
@ Oscillator strength (LENGTH)   :  8.03048335E-32  (Y-polarization)

@ Operator label: ZDIPLEN ; Transition moment : -1.13639203E-15 au
@ Oscillator strength (LENGTH)   :  1.73761741E-30  (Z-polarization)
@ Total oscillator strength (LENGTH)   :  1.83388429E-30

 Eigenvector for state no.100

      Index(conf)                         Z operator          Y operator
      ----------                      --------------      --------------
          44                           -0.1667142953        0.0000000000
          60                           -0.1183002697        0.0000000000
          64                            0.3653736948        0.0000000000
          65                           -0.8925191680        0.0000000000

      101 elements with absolute value ≤ 1.00D-01 are not printed.

 Printout of coefficients in interval  3.1623E-01 to  1.0000E+00
 ===============================================================

  Coefficient of CSF no.        64 is      0.36537369    3.65373695E-01
  Orbital          5   3   6
  Spin coupling    2   1  -1

  Coefficient of CSF no.        65 is     -0.89251917   -8.92519168E-01
  Orbital          5   4   6
  Spin coupling    2   1  -1

 Printout of coefficients in interval  1.0000E-01 to  3.1623E-01
 ===============================================================

  Coefficient of CSF no.        44 is     -0.16671430   -1.66714295E-01
  Orbital          3   4   6
  Spin coupling    2   1  -1

  Coefficient of CSF no.        60 is     -0.11830027   -1.18300270E-01
  Orbital          5   2   4
  Spin coupling    2   1  -1

 Norm of printed CI vector ..      0.97187701

 Magnitude of CI coefficients
 ============================
 ( Ranges are relative to norm of vector :  1.00E+00 )

  10- 1 to 10- 0         4    0.97187701E+00      0.9718770122
  10- 2 to 10- 1        11    0.27801864E-01      0.9996788757
  10- 3 to 10- 2         9    0.32112429E-03      1.0000000000
  Number of coefficients less than 10^-11 times norm is           81


 @ Excited state no:  101 in symmetry 1  ( A  ) - singlet excitation
 -------------------------------------------------------------------

@ Excitation energy :   2.0183155     au
@                       54.921159     eV;   442969.05     cm-1;   5299.0866     kJ / mol

@ Total energy :       -13.752976     au

@ Operator label: XDIPLEN ; Transition moment :  9.46097518E-18 au
@ Oscillator strength (LENGTH)   :  1.20439684E-34  (X-polarization)

@ Operator label: YDIPLEN ; Transition moment : -4.96142514E-16 au
@ Oscillator strength (LENGTH)   :  3.31215527E-31  (Y-polarization)

@ Operator label: ZDIPLEN ; Transition moment : -4.57085341E-16 au
@ Oscillator strength (LENGTH)   :  2.81120417E-31  (Z-polarization)
@ Total oscillator strength (LENGTH)   :  6.12456383E-31

 Eigenvector for state no.101

      Index(conf)                         Z operator          Y operator
      ----------                      --------------      --------------
          44                            0.1046469443        0.0000000000
          54                            0.1466305541        0.0000000000
          58                            0.1040488703        0.0000000000
          64                            0.7849991500        0.0000000000
          65                            0.5602363221        0.0000000000

      100 elements with absolute value ≤ 1.00D-01 are not printed.

 Printout of coefficients in interval  3.1623E-01 to  1.0000E+00
 ===============================================================

  Coefficient of CSF no.        64 is      0.78499915    7.84999150E-01
  Orbital          5   3   6
  Spin coupling    2   1  -1

  Coefficient of CSF no.        65 is      0.56023632    5.60236322E-01
  Orbital          5   4   6
  Spin coupling    2   1  -1

 Printout of coefficients in interval  1.0000E-01 to  3.1623E-01
 ===============================================================

  Coefficient of CSF no.        44 is      0.10464694    1.04646944E-01
  Orbital          3   4   6
  Spin coupling    2   1  -1

  Coefficient of CSF no.        54 is      0.14663055    1.46630554E-01
  Orbital          4   3   6
  Spin coupling    2   1  -1

  Coefficient of CSF no.        58 is      0.10404887    1.04048870E-01
  Orbital          5   2   3
  Spin coupling    2   1  -1

 Norm of printed CI vector ..      0.97336607

 Magnitude of CI coefficients
 ============================
 ( Ranges are relative to norm of vector :  1.00E+00 )

  10- 1 to 10- 0         5    0.97336607E+00      0.9733660718
  10- 2 to 10- 1        13    0.26481438E-01      0.9998475094
  10- 3 to 10- 2         6    0.15249061E-03      1.0000000000
  Number of coefficients less than 10^-11 times norm is           81


 @ Excited state no:  102 in symmetry 1  ( A  ) - singlet excitation
 -------------------------------------------------------------------

@ Excitation energy :   2.1752398     au
@                       59.191286     eV;   477409.95     cm-1;   5711.0912     kJ / mol

@ Total energy :       -13.596052     au

@ Operator label: XDIPLEN ; Transition moment :  9.89953823E-16 au
@ Oscillator strength (LENGTH)   :  1.42116910E-30  (X-polarization)

@ Operator label: YDIPLEN ; Transition moment : -2.88374295E-05 au
@ Oscillator strength (LENGTH)   :  1.20594908E-09  (Y-polarization)

@ Operator label: ZDIPLEN ; Transition moment :  5.60056892E-05 au
@ Oscillator strength (LENGTH)   :  4.54862540E-09  (Z-polarization)
@ Total oscillator strength (LENGTH)   :  5.75457449E-09

 Eigenvector for state no.102

      Index(conf)                         Z operator          Y operator
      ----------                      --------------      --------------
          67                           -0.1154541820        0.0000000000
          74                           -0.8218804195        0.0000000000
          75                           -0.5219632648        0.0000000000
          98                           -0.1253078897        0.0000000000

      101 elements with absolute value ≤ 1.00D-01 are not printed.

 Printout of coefficients in interval  3.1623E-01 to  1.0000E+00
 ===============================================================

  Coefficient of CSF no.        74 is     -0.82188042   -8.21880420E-01
  Orbital          6   3   5
  Spin coupling    2   1  -1

  Coefficient of CSF no.        75 is     -0.52196326   -5.21963265E-01
  Orbital          6   4   5
  Spin coupling    2   1  -1

 Printout of coefficients in interval  1.0000E-01 to  3.1623E-01
 ===============================================================

  Coefficient of CSF no.        67 is     -0.11545418   -1.15454182E-01
  Orbital          6   1   3
  Spin coupling    2   1  -1

  Coefficient of CSF no.        98 is     -0.12530789   -1.25307890E-01
  Orbital          2   3   5   6
  Spin coupling    1   1  -1  -1

 Norm of printed CI vector ..      0.97696481

 Magnitude of CI coefficients
 ============================
 ( Ranges are relative to norm of vector :  1.00E+00 )

  10- 1 to 10- 0         4    0.97696481E+00      0.9769648092
  10- 2 to 10- 1        11    0.22928943E-01      0.9998937521
  10- 3 to 10- 2         9    0.10624790E-03      1.0000000000
  Number of coefficients less than 10^-11 times norm is           81


 @ Excited state no:  103 in symmetry 1  ( A  ) - singlet excitation
 -------------------------------------------------------------------

@ Excitation energy :   2.1752398     au
@                       59.191286     eV;   477409.95     cm-1;   5711.0912     kJ / mol

@ Total energy :       -13.596052     au

@ Operator label: XDIPLEN ; Transition moment :  4.04980907E-16 au
@ Oscillator strength (LENGTH)   :  2.37840044E-31  (X-polarization)

@ Operator label: YDIPLEN ; Transition moment : -5.93996214E-05 au
@ Oscillator strength (LENGTH)   :  5.11662083E-09  (Y-polarization)

@ Operator label: ZDIPLEN ; Transition moment : -2.09742589E-05 au
@ Oscillator strength (LENGTH)   :  6.37953658E-10  (Z-polarization)
@ Total oscillator strength (LENGTH)   :  5.75457449E-09

 Eigenvector for state no.103

      Index(conf)                         Z operator          Y operator
      ----------                      --------------      --------------
          69                           -0.1243327720        0.0000000000
          74                            0.4056587920        0.0000000000
          75                           -0.8850841871        0.0000000000
         102                           -0.1349442438        0.0000000000

      101 elements with absolute value ≤ 1.00D-01 are not printed.

 Printout of coefficients in interval  3.1623E-01 to  1.0000E+00
 ===============================================================

  Coefficient of CSF no.        74 is      0.40565879    4.05658792E-01
  Orbital          6   3   5
  Spin coupling    2   1  -1

  Coefficient of CSF no.        75 is     -0.88508419   -8.85084187E-01
  Orbital          6   4   5
  Spin coupling    2   1  -1

 Printout of coefficients in interval  1.0000E-01 to  3.1623E-01
 ===============================================================

  Coefficient of CSF no.        69 is     -0.12433277   -1.24332772E-01
  Orbital          6   1   4
  Spin coupling    2   1  -1

  Coefficient of CSF no.       102 is     -0.13494424   -1.34944244E-01
  Orbital          2   4   5   6
  Spin coupling    1   1  -1  -1

 Norm of printed CI vector ..      0.98160166

 Magnitude of CI coefficients
 ============================
 ( Ranges are relative to norm of vector :  1.00E+00 )

  10- 1 to 10- 0         4    0.98160166E+00      0.9816016610
  10- 2 to 10- 1         8    0.18076461E-01      0.9996781225
  10- 3 to 10- 2        11    0.32125539E-03      0.9999993779
  10- 4 to 10- 3         1    0.62213372E-06      1.0000000000
  Number of coefficients less than 10^-11 times norm is           81


 @ Excited state no:  104 in symmetry 1  ( A  ) - singlet excitation
 -------------------------------------------------------------------

@ Excitation energy :   2.2940904     au
@                       62.425377     eV;   503494.65     cm-1;   6023.1335     kJ / mol

@ Total energy :       -13.477201     au

@ Operator label: XDIPLEN ; Transition moment : -1.29537157E-17 au
@ Oscillator strength (LENGTH)   :  2.56630342E-34  (X-polarization)

@ Operator label: YDIPLEN ; Transition moment :  6.47120310E-18 au
@ Oscillator strength (LENGTH)   :  6.40456058E-35  (Y-polarization)

@ Operator label: ZDIPLEN ; Transition moment :  9.89442944E-17 au
@ Oscillator strength (LENGTH)   :  1.49727230E-32  (Z-polarization)
@ Total oscillator strength (LENGTH)   :  1.52933989E-32

 Eigenvector for state no.104

      Index(conf)                         Z operator          Y operator
      ----------                      --------------      --------------
          13                            0.1645284838        0.0000000000
          14                            0.1645284838        0.0000000000
          15                            0.9418081066        0.0000000000
          63                            0.1831199090        0.0000000000
          72                            0.1400830455        0.0000000000

      100 elements with absolute value ≤ 1.00D-01 are not printed.

 Printout of coefficients in interval  3.1623E-01 to  1.0000E+00
 ===============================================================

  Coefficient of CSF no.        15 is      0.94180811    9.41808107E-01
  Orbital          5   6
  Spin coupling    2   2

 Printout of coefficients in interval  1.0000E-01 to  3.1623E-01
 ===============================================================

  Coefficient of CSF no.        13 is      0.16452848    1.64528484E-01
  Orbital          3   6
  Spin coupling    2   2

  Coefficient of CSF no.        14 is      0.16452848    1.64528484E-01
  Orbital          4   6
  Spin coupling    2   2

  Coefficient of CSF no.        63 is      0.18311991    1.83119909E-01
  Orbital          5   2   6
  Spin coupling    2   1  -1

  Coefficient of CSF no.        72 is      0.14008305    1.40083045E-01
  Orbital          6   1   5
  Spin coupling    2   1  -1

 Norm of printed CI vector ..      0.99429791

 Magnitude of CI coefficients
 ============================
 ( Ranges are relative to norm of vector :  1.00E+00 )

  10- 1 to 10- 0         5    0.99429791E+00      0.9942979143
  10- 2 to 10- 1         9    0.55123382E-02      0.9998102525
  10- 3 to 10- 2        10    0.18905637E-03      0.9999993089
  10- 4 to 10- 3         1    0.69112708E-06      1.0000000000
  Number of coefficients less than 10^-11 times norm is           80


 Time used in polarization propagator calculation is      0.13 CPU seconds for symmetry 1

  Total CPU  time used in RESPONSE:   0.16 seconds
  Total wall time used in RESPONSE:   0.45 seconds


                   .-------------------------------------------.
                   | End of Dynamic Property Section (RESPONS) |
                   `-------------------------------------------'

  Total CPU  time used in DALTON:   0.33 seconds
  Total wall time used in DALTON:   1.34 seconds

 NOTE:    1 warnings have been issued.
 Check output, result, and error files for "WARNING".

 
     Date and time (Linux)  : Tue Jul  7 17:01:34 2026
     Host name              : n-62-31-4                               
