

     ************************************************************************
     *************** Dalton - An Electronic Structure Program ***************
     ************************************************************************

    This is output from DALTON release Dalton2024.0-dev (2024)
         ( Web site: http://daltonprogram.org )

   ----------------------------------------------------------------------------

    NOTE:
     
    Dalton is an experimental code for the evaluation of molecular
    properties using (MC)SCF, DFT, CI, and CC wave functions.
    The authors accept no responsibility for the performance of
    the code or for the correctness of the results.
     
    The code (in whole or part) is provided under a licence and
    is not to be reproduced for further distribution without
    the written permission of the authors or their representatives.
     
    See the home page "http://daltonprogram.org" for further information.
     
    If results obtained with this code are published,
    the appropriate citations would be both of:
     
       K. Aidas, C. Angeli, K. L. Bak, V. Bakken,
       R. Bast, L. Boman, O. Christiansen, R. Cimiraglia,
       S. Coriani, P. Dahle, E. K. Dalskov, U. Ekstroem,
       T. Enevoldsen, J. J. Eriksen, P. Ettenhuber, B. Fernandez,
       L. Ferrighi, H. Fliegl, L. Frediani, K. Hald, A. Halkier,
       C. Haettig, H. Heiberg, T. Helgaker, A. C. Hennum,
       H. Hettema, E. Hjertenaes, S. Hoest, I.-M. Hoeyvik,
       M. F. Iozzi, B. Jansik, H. J. Aa. Jensen, D. Jonsson,
       P. Joergensen, J. Kauczor, S. Kirpekar,
       T. Kjaergaard, W. Klopper, S. Knecht, R. Kobayashi, H. Koch,
       J. Kongsted, A. Krapp, K. Kristensen, A. Ligabue,
       O. B. Lutnaes, J. I. Melo, K. V. Mikkelsen, R. H. Myhre,
       C. Neiss, C. B. Nielsen, P. Norman, J. Olsen,
       J. M. H. Olsen, A. Osted, M. J. Packer, F. Pawlowski,
       T. B. Pedersen, P. F. Provasi, S. Reine, Z. Rinkevicius,
       T. A. Ruden, K. Ruud, V. Rybkin, P. Salek, C. C. M. Samson,
       A. Sanchez de Meras, T. Saue, S. P. A. Sauer,
       B. Schimmelpfennig, K. Sneskov, A. H. Steindal,
       K. O. Sylvester-Hvid, P. R. Taylor, A. M. Teale,
       E. I. Tellgren, D. P. Tew, A. J. Thorvaldsen, L. Thoegersen,
       O. Vahtras, M. A. Watson, D. J. D. Wilson, M. Ziolkowski
       and H. Agren,
       "The Dalton quantum chemistry program system",
       WIREs Comput. Mol. Sci. 2014, 4:269-284 (doi: 10.1002/wcms.1172)
     
    and
     
       Dalton, a molecular electronic structure program,
       Release Dalton2024.0-dev (2024), see http://daltonprogram.org
   ----------------------------------------------------------------------------

    Authors in alphabetical order (Major contribution(s) in parenthesis):

  Kestutis Aidas,              Vilnius University,        Lithuania   (QM/MM)
  Celestino Angeli,            University of Ferrara,     Italy       (NEVPT2)
  Juan J. Aucar,               Northeast National UniversiArgentina   (LRESC, Relativistic Effects on EFG)
  Keld L. Bak,                 UNI-C,                     Denmark     (AOSOPPA, non-adiabatic coupling, magnetic properties)
  Vebjoern Bakken,             University of Oslo,        Norway      (DALTON; geometry optimizer, symmetry detection)
  Radovan Bast,                UiT The Arctic U. of NorwayNorway      (DALTON installation and execution frameworks)
  Pablo Baudin,                University of Valencia,    Spain       (Cholesky excitation energies)
  Linus Boman,                 NTNU,                      Norway      (Cholesky decomposition and subsystems)
  Bruno N. Cabral Tenorio,     Technical Univ. of Denmark,Denmark     (Lanczos-based CC methods)
  Ove Christiansen,            Aarhus University,         Denmark     (CC module)
  Renzo Cimiraglia,            University of Ferrara,     Italy       (NEVPT2)
  Sonia Coriani,               Technical Univ. of Denmark,Denmark     (CC and RESPONS modules)
  Janusz Cukras,               University of Warsaw,      Poland      (MChD in RESPONS)
  Paal Dahle,                  University of Oslo,        Norway      (Parallelization)
  Erik K. Dalskov,             UNI-C,                     Denmark     (SOPPA)
  Thomas Enevoldsen,           Univ. of Southern Denmark, Denmark     (SOPPA)
  Janus J. Eriksen,            Aarhus University,         Denmark     (Polarizable embedding, TDA)
  Rasmus Faber,                Technical Univ. of Denmark,Denmark     (Vib.avg. NMR w. SOPPA, parallel AO-SOPPA, CVS-CC and EOMCC)
  Tobias Fahleson,             KTH Stockholm,             Sweden      (Damped cubic response)
  Berta Fernandez,             U. of Santiago de CompostelSpain       (Doublet spin, ESR in RESPONS)
  Lara Ferrighi,               Aarhus University,         Denmark     (PCM Cubic response)
  Heike Fliegl,                University of Oslo,        Norway      (CCSD(R12))
  Luca Frediani,               UiT The Arctic U. of NorwayNorway      (PCM)
  Emmanuel Fromager,           Univ. Strasbourg,          France      (MC-srDFT)
  Bin Gao,                     UiT The Arctic U. of NorwayNorway      (Gen1Int library)
  Andre S. P. Gomes,           CNRS/Universite de Lille,  France      (Frozen density embedding)
  Christof Haettig,            Ruhr-University Bochum,    Germany     (CC module)
  Kasper Hald,                 Aarhus University,         Denmark     (CC module)
  Asger Halkier,               Aarhus University,         Denmark     (CC module)
  Frederik Beyer Hansen,       University of Copenhagen,  Denmark     (Parallel AO-SOPPA)
  Erik D. Hedegaard,           Univ. of Southern Denmark, Denmark     (Polarizable embedding, QM/MM, and MC-srDFT)
  Hanne Heiberg,               University of Oslo,        Norway      (Geometry analysis, selected one-electron integrals)
  Trygve Helgaker,             University of Oslo,        Norway      (DALTON; ABACUS, ERI, DFT modules, London, and much more)
  Alf Christian Hennum,        University of Oslo,        Norway      (Parity violation)
  Hinne Hettema,               University of Auckland,    New Zealand (Quadratic response in RESPONS; SIRIUS supersymmetry)
  Andreas E. Hillers-Bendtsen, University of Copenhagen,  Denmark     (MP3)
  Eirik Hjertenaes,            NTNU,                      Norway      (Cholesky decomposition)
  Nicolai Machholdt Hoeyer,    Aarhus University,         Denmark     (MP3)
  Pi A. B. Haase,              University of Copenhagen,  Denmark     (Triplet AO-SOPPA)
  Maria Francesca Iozzi,       University of Oslo,        Norway      (RPA)
  Christoph Jacob,             TU Braunschweig            Germany     (Frozen density embedding)
  Brano Jansik,                Technical Univ. of Ostrava Czech Rep.  (DFT cubic response)
  Hans Joergen Aa. Jensen,     Univ. of Southern Denmark, Denmark     (DALTON; SIRIUS, RESPONS, ABACUS, MC-srDFT, and much more)
  Dan Jonsson,                 UiT The Arctic U. of NorwayNorway      (Cubic response in RESPONS module)
  Poul Joergensen,             Aarhus University,         Denmark     (RESPONS, ABACUS, and CC modules)
  Maciej Kaminski,             University of Warsaw,      Poland      (CPPh in RESPONS)
  Joanna Kauczor,              Linkoeping University,     Sweden      (Complex polarization propagator (CPP) module)
  Sheela Kirpekar,             Univ. of Southern Denmark, Denmark     (Mass-velocity & Darwin integrals)
  Frederik Oersted Kjeldal,    Technical Univ. of Denmark,Denmark     (MP3)
  Erik Kjellgren,              Univ. of Southern Denmark, Denmark     (MC-srDFT)
  Wim Klopper,                 KIT Karlsruhe,             Germany     (R12 code in CC, SIRIUS, and ABACUS modules)
  Stefan Knecht,               ETH Zurich,                Switzerland (Parallel CI and MCSCF, MC-srDFT)
  Rika Kobayashi,              Australian National Univ., Australia   (DIIS in CC, London in MCSCF)
  Henrik Koch,                 NTNU,                      Norway      (CC module, Cholesky decomposition)
  Jacob Kongsted,              Univ. of Southern Denmark, Denmark     (Polarizable embedding, polarizable density embedding, QM/MM)
  Andrea Ligabue,              University of Modena,      Italy       (CTOCD, AOSOPPA)
  Nanna H. List,               Univ. of Southern Denmark, Denmark     (Polarizable embedding)
  Ola B. Lutnaes,              University of Oslo,        Norway      (DFT Hessian)
  Juan I. Melo,                University of Buenos Aires,Argentina   (LRESC, Relativistic Effects on NMR Shieldings)
  Kurt V. Mikkelsen,           University of Copenhagen,  Denmark     (MC-SCRF, QM/MM, and MP3)
  Rolf H. Myhre,               NTNU,                      Norway      (Subsystems and CC3)
  Christian Neiss,             Univ. Erlangen-Nuernberg,  Germany     (CCSD(R12))
  Christian B. Nielsen,        University of Copenhagen,  Denmark     (QM/MM)
  Patrick Norman,              KTH Stockholm,             Sweden      (Cubic response and complex frequency response in RESPONS)
  Jeppe Olsen,                 Aarhus University,         Denmark     (SIRIUS CI/density modules)
  Jogvan Magnus H. Olsen,      Aarhus University,         Denmark     (Polarizable embedding and polarizable density embedding)
  Anders Osted,                Copenhagen University,     Denmark     (QM/MM)
  Martin J. Packer,            University of Sheffield,   UK          (SOPPA)
  Filip Pawlowski,             Kazimierz Wielki UniversityPoland      (CC3)
  Morten N. Pedersen,          Univ. of Southern Denmark, Denmark     (Polarizable embedding)
  Thomas B. Pedersen,          University of Oslo,        Norway      (Cholesky decomposition)
  Patricio F. Provasi,         University of Northeastern,Argentina   (Analysis of coupling constants in localized orbitals)
  Peter Reinholdt,             Univ. of Southern Denmark, Denmark     (Polarizable embedding and polarizable density embedding)
  Zilvinas Rinkevicius,        KTH Stockholm,             Sweden      (open-shell DFT, ESR)
  Elias Rudberg,               KTH Stockholm,             Sweden      (DFT grid and basis info)
  Torgeir A. Ruden,            University of Oslo,        Norway      (Numerical derivatives in ABACUS)
  Kenneth Ruud,                UiT The Arctic U. of NorwayNorway      (DALTON; ABACUS magnetic properties and much more)
  Pawel Salek,                 KTH Stockholm,             Sweden      (DALTON; DFT code)
  Claire C. M. Samson,         University of Karlsruhe    Germany     (Boys localization, r12 integrals in ERI)
  Alfredo Sanchez de Meras,    University of Valencia,    Spain       (CC module, Cholesky decomposition)
  Trond Saue,                  Paul Sabatier University,  France      (direct Fock matrix construction)
  Stephan P. A. Sauer,         University of Copenhagen,  Denmark     (SOPPA(CCSD), SOPPA prop., AOSOPPA, vibrational g-factors)
  Bernd Schimmelpfennig,       Forschungszentrum KarlsruheGermany     (AMFI module)
  Anna K. Schnack-Petersen,    University of Copenhagen,  Denmark     (RPA(D) and HRPA(D) properties in AOSOPPA)
  Kristian Sneskov,            Aarhus University,         Denmark     (Polarizable embedding, QM/MM)
  Arnfinn H. Steindal,         UiT The Arctic U. of NorwayNorway      (parallel QM/MM, polarizable embedding)
  Casper Steinmann,            Aalborg University,        Denmark     (QFIT, polarizable embedding)
  K. O. Sylvester-Hvid,        University of Copenhagen,  Denmark     (MC-SCRF)
  Peter R. Taylor,             VLSCI/Univ. of Melbourne,  Australia   (Symmetry handling ABACUS, integral transformation)
  Andrew M. Teale,             University of Nottingham,  England     (DFT-AC, DFT-D)
  David P. Tew,                University of Bristol,     England     (CCSD(R12))
  Julien Toulouse,             Sorbonne Univ.,            France      (MC-srDFT)
  Olav Vahtras,                KTH Stockholm,             Sweden      (Triplet response, spin-orbit, ESR, TDDFT, open-shell DFT)
  Lucas Visscher,              Vrije Universiteit AmsterdaNetherlands (Frozen density embedding)
  David J. Wilson,             La Trobe University,       Australia   (DFT Hessian and DFT magnetizabilities)
  Luna Zamok,                  University of Copenhagen,  Denmark     (Block Lanczos RPA solver in SOPPA module)
  Hans Agren,                  KTH Stockholm,             Sweden      (SIRIUS module, RESPONS, MC-SCRF solvation)
 --------------------------------------------------------------------------------

     Date and time (Linux)  : Tue Jul  7 10:30:51 2026
     Host name              : n-62-31-23                              

 * Work memory size             :   512000000 =  3.815 gigabytes.

 * Directories for basis set searches:
   1) /work3/jochar/DaltonTests
   2) /zhome/d7/7/119775/My_Codes/Dalton_Release/dalton/build_omp_nov24/basis


Compilation information
-----------------------

 Who compiled             | soco
 Host                     | hpclogin1
 System                   | Linux-6.1.112-1.el9.elrepo.x86_64
 CMake generator          | Unix Makefiles
 Processor                | x86_64
 64-bit integers          | OFF
 MPI                      | OFF
 Fortran compiler         | /appl/intel/2023.2.0.49397/compiler/2023.2.0/linux
                          | /bin/intel64/ifort
 Fortran compiler version | ifort (IFORT) 2021.10.0 20230609
 C compiler               | /appl/intel/2023.2.0.49397/compiler/2023.2.0/linux
                          | /bin/intel64/icc
 C compiler version       | icc (ICC) 2021.10.0 20230609
 C++ compiler             | /appl/intel/2023.2.0.49397/compiler/2023.2.0/linux
                          | /bin/intel64/icpc
 C++ compiler version     | icpc (ICC) 2021.10.0 20230609
 Static linking           | OFF
 Last Git revision        | a531ac4fbf115ebda1c90140ce3fd6aa236a2033
 Git branch               | master
 Configuration time       | 2024-11-14 11:23:30.470039

 * Sequential calculation.


   Content of the .dal input file
 ----------------------------------

**DALTON INPUT
.RUN WAVE FUNCTIONS   !tipo di calcolo
.RUN RESPONSE
**INTEGRALS
.DIPLEN               !integrali dell'operatore dipolo elettrico
**WAVE FUNCTION
.HF
.CI
!*PRINT
!.PRINTL
!   0 11
*SCF INP              !parte da Hartree-Fock
.DOUBLY OCCUPIED
4
.THRESH               !soglia di convergenza
 1.0D-10
*CONFIGURATION INPUT
.SPIN MULTIPLICITY
1
.SYMMETRY
1
.INACTIVE ORBITALS !the inner electrons are kept frozen
0
.CAS SPACE
4
.ELECTRONS
4
**RESPONS
*LINEAR
.THCLR
1.0d-9
.DIPLEN
.SINGLE RESIDUE
.ROOTS
300
**END OF INPUT


   Content of the .mol file
 ----------------------------

BASIS
STO-3G
test VQE
dalton test
Atomtypes=2 Angstrom Nosymmetry
Charge=6.0 Atoms=1
O     0.1035000000000000  0.0000000000000000  0.0
Charge=1.0 Atoms=2
H    -0.4640000000000000  0.7956000000000000  0.0
H    -0.4640000000000000  -0.7956000000000000  0.0


       *******************************************************************
       *********** Output from DALTON general input processing ***********
       *******************************************************************

 --------------------------------------------------------------------------------
   Overall default print level:    0
   Print level for DALTON.STAT:    1

    HERMIT 1- and 2-electron integral sections will be executed
    "Old" integral transformation used (limited to max 255 basis functions)
    Wave function sections will be executed (SIRIUS module)
    Dynamic molecular response properties section will be executed (RESPONSE module)
 --------------------------------------------------------------------------------


   ****************************************************************************
   *************** Output of molecule and basis set information ***************
   ****************************************************************************


    The two title cards from your ".mol" input:
    --------------------------------------------------------------------------------
 1: test VQE
 2: dalton test
    --------------------------------------------------------------------------------

  Coordinates are entered in Angstrom and converted to atomic units.
          - Conversion factor : 1 bohr = 0.52917721 A

  Atomic type no.    1
  --------------------
  Nuclear charge:   6.00000
  Number of symmetry independent centers:    1
  Number of basis sets to read;    2
  Basis set file used for this atomic type with Z =   6 :
     "/zhome/d7/7/119775/My_Codes/Dalton_Release/dalton/build_omp_nov24/basis/STO-3G"

  Atomic type no.    2
  --------------------
  Nuclear charge:   1.00000
  Number of symmetry independent centers:    2
  Number of basis sets to read;    2
  Basis set file used for this atomic type with Z =   1 :
     "/zhome/d7/7/119775/My_Codes/Dalton_Release/dalton/build_omp_nov24/basis/STO-3G"


                         SYMGRP: Point group information
                         -------------------------------

@    Point group: C1 


                                 Isotopic Masses
                                 ---------------

                           O          12.000000
                           H           1.007825
                           H           1.007825

                       Total mass:    14.015650 amu
                       Natural abundance:  98.870 %

 Center-of-mass coordinates (a.u.):    0.041357    0.000000    0.000000
 Center-of-mass coordinates (Angs):    0.021885    0.000000    0.000000


  Atoms and basis sets
  --------------------

  Number of atom types :    2
  Total number of atoms:    3

  Basis set used is "STO-3G" from the basis set library.

  label    atoms   charge   prim   cont     basis
  ----------------------------------------------------------------------
  O           1    6.0000    15     5      [6s3p|2s1p]                                        
  H           2    1.0000     3     1      [3s|1s]                                            
  ----------------------------------------------------------------------
  total:      3    8.0000    21     7
  ----------------------------------------------------------------------

  Threshold for neglecting AO integrals:  1.00D-12


  Cartesian Coordinates (a.u.)
  ----------------------------

  Total number of coordinates:    9
  O       :     1  x   0.1955866539    2  y   0.0000000000    3  z   0.0000000000
  H       :     4  x  -0.8768329220    5  y   1.5034661050    6  z   0.0000000000
  H       :     7  x  -0.8768329220    8  y  -1.5034661050    9  z   0.0000000000


   Interatomic separations (in Angstrom):
   --------------------------------------

            O           H           H     
            ------      ------      ------
 O     :    0.000000
 H     :    0.977259    0.000000
 H     :    0.977259    1.591200    0.000000


  Max    interatomic separation is    1.5912 Angstrom (    3.0069 Bohr)
  between atoms    3 and    2, "H     " and "H     ".

  Min HX interatomic separation is    0.9773 Angstrom (    1.8468 Bohr)


  Bond distances (Angstrom):
  --------------------------

                  atom 1     atom 2       distance
                  ------     ------       --------
  bond distance:  H          O            0.977259
  bond distance:  H          O            0.977259


  Bond angles (degrees):
  ----------------------

                  atom 1     atom 2     atom 3         angle
                  ------     ------     ------         -----
  bond angle:     H          O          H            109.000




 Principal moments of inertia (u*A**2) and principal axes
 --------------------------------------------------------

   IA       0.555795          0.000000    1.000000    0.000000
   IB       1.275865          1.000000    0.000000    0.000000
   IC       1.831660          0.000000    0.000000    1.000000


 Rotational constants
 --------------------

@    The molecule is planar.

               A                   B                   C

         909289.8431         396107.0071         275913.0898 MHz
           30.330644           13.212708            9.203470 cm-1


@  Nuclear repulsion energy :    6.830458472614 Hartree


                     .---------------------------------------.
                     | Starting in Integral Section (HERMIT) |
                     `---------------------------------------'



 ***************************************************************************************
 ****************** Output from **INTEGRALS input processing (HERMIT) ******************
 ***************************************************************************************



    *************************************************************************
    ****************** Output from HERMIT input processing ******************
    *************************************************************************


 Default print level:        1

 Calculation of one- and two-electron Hamiltonian integrals.

 The following one-electron property integrals are calculated as requested:
          - overlap integrals
          - dipole length integrals

 Center of mass  (bohr):      0.041357451707      0.000000000000      0.000000000000
 Operator center (bohr):      0.000000000000      0.000000000000      0.000000000000
 Gauge origin    (bohr):      0.000000000000      0.000000000000      0.000000000000
 Dipole origin   (bohr):      0.000000000000      0.000000000000      0.000000000000

Calculation of 2-electron integrals are postponed until they are needed.


     ************************************************************************
     ************************** Output from HERINT **************************
     ************************************************************************



                      Nuclear contribution to dipole moments
                      --------------------------------------

                 au               Debye          C m (/(10**-30)

      x     -0.58014592        -1.47458375        -4.91868195
      y      0.00000000         0.00000000         0.00000000
      z      0.00000000         0.00000000         0.00000000


  Total CPU  time used in HERMIT:   0.01 seconds
  Total wall time used in HERMIT:   0.03 seconds


                        .----------------------------------.
                        | End of Integral Section (HERMIT) |
                        `----------------------------------'



                   .--------------------------------------------.
                   | Starting in Wave Function Section (SIRIUS) |
                   `--------------------------------------------'


     WARNING  Reference state is required for CI response and CI-NO
     WARNING  ".STATE" was not specified for "*CI INPUT",
     WARNING  the reference state is set to be state no.  1

 *** Output from Huckel module :

     Using EWMO model:          T
     Using EHT  model:          F
     Number of Huckel orbitals each symmetry:    7

 EWMO - Energy Weighted Maximum Overlap - is a Huckel type method,
        which normally is better than Extended Huckel Theory.
 Reference: Linderberg and Ohrn, Propagators in Quantum Chemistry (Wiley, 1973)

 Huckel EWMO eigenvalues for symmetry :  1
          -11.347822      -1.217320      -0.652833      -0.453354      -0.406900
           -0.098571      -0.094400

 **********************************************************************
 *SIRIUS* a direct, restricted step, second order MCSCF program       *
 **********************************************************************

 
     Date and time (Linux)  : Tue Jul  7 10:30:52 2026
     Host name              : n-62-31-23                              

 Title lines from ".mol" input file:
     test VQE
     dalton test

 Print level on unit LUPRI =   2 is   0
 Print level on unit LUW4  =   2 is   5

@    Configuration interaction calculation.

@    CI response calculation.

@    CI type: user specified active spaces.
@              Type: complete active space calculation (CAS).

@    This is a combination run starting with
@              a restricted, closed shell Hartree-Fock calculation


 Initial molecular orbitals are obtained according to
 ".MOSTART EWMO  " input option

     Wave function specification
     ============================
@    Wave function type        --- CI ---
@    Number of closed shell electrons           0
@    Number of electrons in active shells       4
@    Total charge of the molecule               4

@    Spin multiplicity and 2 M_S                1         0
@    Total number of symmetries                 1 (point group: C1 )
@    Reference state symmetry                   1 (irrep name : A  )

     Orbital specifications
     ======================
@    Abelian symmetry species          All |    1
@                                          |  A  
                                       --- |  ---
@    Inactive orbitals                   0 |    0
@    Active orbitals                     4 |    4
@    Secondary orbitals                  3 |    3
@    Total number of orbitals            7 |    7
@    Number of basis functions           7 |    7

      -- Initial occupation of symmetries is determined from user input.                      
      -- Initial occupation of symmetries is :
@    Occupied SCF orbitals               4 |    4

     Optimization information
     ========================
@    Number of configurations                20
@    Number of orbital rotations              0
     ------------------------------------------
@    Total number of variables               20

     Maximum number of CI iterations         25
     Threshold for CI convergence      1.00D-05
     Number of CI roots to converge           1

@    Reference state in CI response calculation :       1


 ***********************************************
 ***** DIIS acceleration of SCF iterations *****
 ***********************************************

 C1-DIIS algorithm; max error vectors =    8

 Iter      Total energy        Error norm    Delta(E)  DIIS dim.
 -----------------------------------------------------------------------------

Calculating AOSUPINT

---> (Re)generating AOTWOINT


     ************************************************************************
     ************************** Output from HERINT **************************
     ************************************************************************


 Threshold for neglecting two-electron integrals:  1.00D-12
 HERMIT - Number of two-electron integrals written:         228 ( 56.2% )
 HERMIT - Megabytes written:                              0.137

     (Precalculated AO two-electron integrals are transformed to P-supermatrix elements.
      Threshold for discarding integrals :  1.00D-12 )

@  1    -38.3153895540        5.29790D-01   -3.83D+01    1
      Virial theorem: -V/T =      1.990444
@    MULPOP   O       0.16; H      -0.08; H      -0.08; 
   1  Level shift: doubly occupied orbital energies shifted by -2.00D-01
 -----------------------------------------------------------------------------
@  2    -38.3323874183        1.06389D-01   -1.70D-02    2
      Virial theorem: -V/T =      1.988287
@    MULPOP   O      -0.05; H       0.03; H       0.03; 
   2  Level shift: doubly occupied orbital energies shifted by -5.00D-02
 -----------------------------------------------------------------------------
@  3    -38.3333567627        1.34263D-02   -9.69D-04    3
      Virial theorem: -V/T =      1.987288
@    MULPOP   O      -0.10; H       0.05; H       0.05; 
   3  Level shift: doubly occupied orbital energies shifted by -1.25D-02
 -----------------------------------------------------------------------------
@  4    -38.3333741139        4.37157D-04   -1.74D-05    4
      Virial theorem: -V/T =      1.987149
@    MULPOP   O      -0.10; H       0.05; H       0.05; 
 -----------------------------------------------------------------------------
@  5    -38.3333741391        8.56994D-05   -2.51D-08    5
      Virial theorem: -V/T =      1.987147
@    MULPOP   O      -0.10; H       0.05; H       0.05; 
 -----------------------------------------------------------------------------
@  6    -38.3333741403        1.82722D-06   -1.22D-09    6
      Virial theorem: -V/T =      1.987146
@    MULPOP   O      -0.10; H       0.05; H       0.05; 
 -----------------------------------------------------------------------------
@  7    -38.3333741403        4.06638D-11   -5.33D-13    7

@ *** DIIS converged in   7 iterations !
@     Converged SCF energy, gradient:    -38.333374140285    4.07D-11
    - total time used in SIRFCK :              0.00 seconds

 --- Writing SIRIFC interface file

--------------------------------------------------------------------------------


     .--------------------------------------------------.
     | HF-SCF KT IPs [a.u. & eV] from Koopmans' theorem |
     `--------------------------------------------------'


     HF-SCF KT symmetry 1 ( A  ) in point group C1  -- 4 principal poles with pole strength 1

   ============  ============  ============  ============
      11.004088      0.892749      0.570218      0.308723
     299.436453     24.292945     15.516414      8.400772
   ============  ============  ============  ============

@ Summary of HF-SCF KT ionization potentials [eV]:

@ Symmetry 1 (A  ) :   299.436      24.293      15.516       8.401

  === End of HF-SCF KT output ===
--------------------------------------------------------------------------------


 CPU and wall time for SCF :       0.045       0.262


 ----- Output from SIRIUS CI module (CICTL) -----




 2-el. integral transformation level 0: Total CPU and WALL times (sec)       0.006       0.050

 (CIST1) 8 lowest diagonal elements:

 Element no. Config.no.    Active energy      Total energy

         1 :          1    -40.2649406339    -33.4344821613
         2 :          7    -39.9647952010    -33.1343367284
         3 :          8    -39.8822592925    -33.0518008199
         4 :          2    -39.6203165804    -32.7898581077
         5 :          9    -39.5596081489    -32.7291496763
         6 :          4    -39.2172564715    -32.3867979989
         7 :         11    -29.1010881678    -22.2706296952
         8 :         10    -29.0626530620    -22.2321945894

Lowest 1 elements are used as separate start CI vectors.


 Convergence threshold for CI optimization :     0.00001000


 CI root     eigenvalue        residual norm

    1      -33.4344821613        0.1774436497

 CI root     eigenvalue        residual norm

    1      -33.4775061055        0.0258210700

 CI root     eigenvalue        residual norm

    1      -33.4777068347        0.0031171452

 CI root     eigenvalue        residual norm

    1      -33.4777084336        0.0002736598

 CI root     eigenvalue        residual norm

    1      -33.4777084431        0.0000130520

 CI root     eigenvalue        residual norm

    1      -33.4777084431        0.0000002303 converged

 The requested root number is now converged.


 *** CI converged in  6 iterations.



@ Final CI energies and residuals in symmetry 1 (irrep A  )
@    1      -33.477708443072665       2.30D-07

 Writing SIRIFC interface file for CI root no. 1

 CPU and wall time for CI :       0.016       0.089


                       .-----------------------------------.
                       | --- Final results from SIRIUS --- |
                       `-----------------------------------'


@    Spin multiplicity:           1
@    Spatial symmetry:            1 ( irrep  A   in C1  )
@    Total charge of molecule:    4

@    This was a CI calculation.
@    State number:                1

@    Final CI energy:             -33.477708443073
@    Nuclear repulsion:             6.830458472614
@    Electronic energy:           -40.308166915687

@    Final gradient norm:           0.000000230339

 
     Date and time (Linux)  : Tue Jul  7 10:30:52 2026
     Host name              : n-62-31-23                              

 Occupancies of natural orbitals
 -------------------------------

 Symmetry 1  ( A  ) -- Total occupation in this symmetry is   4.000000000

   1.999997210   1.904735521   0.085634467   0.009632801

  Effective numbers of unpaired electrons this symmetry Eqs. 1) and 2):  0.36  0.06

  Total effective number of unpaired electrons :
  Eq. 1) sum(i) [(2 - n_i) n_i]    =  0.3646
  Eq. 2) sum(i) [(2 - n_i) n_i]**2 =  0.0602
 (Reference: M. Head-Gordon, Chemical Physics Letters 372 (2003) 508-511)

  --- NOTE THAT THE OCCUPATION NUMBERS ARE FOR ANALYSIS PURPOSE ONLY
  --- The orbital coefficients have NOT been transformed
  --- to ordered natural orbitals.

File label for MO orbitals:   7Jul26    CIORB  

 (Only coefficients > 0.0100 are printed.)

 Molecular orbitals for symmetry species 1  (A  )
 ------------------------------------------------

    Orbital         1        2        3        4        5        6        7
   1 O   :1s    -0.9928   0.2156   0.0000   0.1331   0.0000  -0.1830  -0.0000
   2 O   :1s    -0.0338  -0.6096  -0.0000  -0.6182  -0.0000   1.3592   0.0000
   3 O   :2px    0.0080   0.1955   0.0000  -0.7978  -0.0000  -0.8512  -0.0000
   4 O   :2py    0.0000   0.0000  -0.5367  -0.0000  -0.0000  -0.0000   1.2132
   5 O   :2pz    0.0000   0.0000   0.0000   0.0000  -1.0000  -0.0000  -0.0000
   6 H   :1s     0.0090  -0.2773  -0.4513   0.1755   0.0000  -1.0317  -0.9653
   7 H   :1s     0.0090  -0.2773   0.4513   0.1755   0.0000  -1.0317   0.9653

 Printout of CI-coefficients abs greater than 0.05000 for root  1
 *** NOTE: this root is the CI reference state ***

 Printout of coefficients in interval  3.1623E-01 to  1.0000E+00
 ===============================================================

  Coefficient of CSF no.         1 is      0.96908640    9.69086402E-01
  Orbital          1   2
  Spin coupling    2   2

 Printout of coefficients in interval  1.0000E-01 to  3.1623E-01
 ===============================================================

  Coefficient of CSF no.         2 is     -0.20690099   -2.06900986E-01
  Orbital          1   3
  Spin coupling    2   2

  Coefficient of CSF no.         8 is      0.11889267    1.18892669E-01
  Orbital          1   2   4
  Spin coupling    2   1  -1

 Printout of coefficients in interval  5.0000E-02 to  1.0000E-01
 ===============================================================

  Coefficient of CSF no.         4 is     -0.06255718   -6.25571794E-02
  Orbital          1   4
  Spin coupling    2   2

 Norm of printed CI vector ..      0.99998534

 Magnitude of CI coefficients
 ============================
 ( Ranges are relative to norm of vector :  1.00E+00 )

  10- 1 to 10- 0         3    0.99607194E+00      0.9960719390
  10- 2 to 10- 1         1    0.39134007E-02      0.9999853397
  10- 3 to 10- 2         2    0.13280306E-04      0.9999986200
  10- 4 to 10- 3         5    0.13757658E-05      0.9999999958
  10- 5 to 10- 4         1    0.42025291E-08      1.0000000000
  Number of coefficients less than 10^-11 times norm is            8

  Total CPU  time used in SIRIUS :   0.08 seconds
  Total wall time used in SIRIUS :   0.47 seconds

 
     Date and time (Linux)  : Tue Jul  7 10:30:52 2026
     Host name              : n-62-31-23                              


                     .---------------------------------------.
                     | End of Wave Function Section (SIRIUS) |
                     `---------------------------------------'



                 .------------------------------------------------.
                 | Starting in Dynamic Property Section (RESPONS) |
                 `------------------------------------------------'


 ----------------------------------------------------------------------------------------
  RESPONSE  -  an MCSCF, MC-srDFT, DFT, SOPPA and SOPPA-srDFT response property program
 ----------------------------------------------------------------------------------------

 This is a configuration interaction response calculation.
   Note: this is equivalent to a CI sum-over-states calculation of response properties.


 -------- OUTPUT FROM RESPONSE INPUT PROCESSING --------




  Linear Response single residue calculation
 -------------------------------------------


    4 input options by user.

 Print level                                    : IPRPP  =   2
 Maximum number of iterations for eigenval.eqs. : MAXITP =  60
 Threshold for convergence of eigenvalue eqs.   : THCPP  = 1.000D-03
 Maximum iterations in optimal orbital algorithm: MAXITO =   5

    300 Excitation energies are calculated for symmetry no.    1

      3 property residues are calculated with labels:

               XDIPLEN 
               YDIPLEN 
               ZDIPLEN 

 Old direct access AO file found, SORTA skipped.

 2-el. integral transformation level 4: Total CPU and WALL times (sec)       0.006       0.055


 CI energy            :      -33.477708443072665
 -- inactive part     :        6.830458472614062
 --   active part     :      -40.308166915686726
 -- nuclear repulsion :        6.830458472614062


                         *******************************
                         *** CI response calculation ***
                         *******************************

 ----------------------------------------------------------------
 ----- Linear response calculation
 ----- Symmetry of excitation/property operator(s)    1  ( A  )
 ----------------------------------------------------------------

 Number of excitations of this symmetry          300
 Number of response properties of this symmetry    0
 Number of C6/C8 properties of this symmetry       0


 Perturbation symmetry.     KSYMOP:           1
 Perturbation spin symmetry.TRPLET:           F
 Orbital variables.         KZWOPT:           0
 Configuration variables.   KZCONF:          20
 Total number of variables. KZVAR :          20

 ** RSPVAR ** Number of PP start vectors  300
   exceeds the maximum number of variables   19
   Number of start vectors reset to number of variables



 --- EXCITATION ENERGIES AND TRANSITION MOMENT CALCULATION (MCTDHF) ---

 Operator symmetry = 1  ( A  ); triplet =   F

RSPORT:    1 out of   20 new trial vectors linear dependent

 ** RSPCTL MICROITERATION NUMBER    1

      Root  Residual tot.,    conf., and orb.    Bnorm      Eigenvalue
      ----------------------------------------------------------------
         1    8.02461D-15  8.02D-15  0.00D+00  1.00D+00    4.73767D-01
         2    7.38498D-15  7.38D-15  0.00D+00  1.00D+00    4.90591D-01
         3    8.26073D-15  8.26D-15  0.00D+00  1.00D+00    7.21453D-01
         4    6.53457D-15  6.53D-15  0.00D+00  1.00D+00    7.81137D-01
         5    6.24895D-15  6.25D-15  0.00D+00  1.00D+00    1.11512D+00
         6    8.97165D-15  8.97D-15  0.00D+00  1.00D+00    1.11817D+01
         7    1.15951D-14  1.16D-14  0.00D+00  1.00D+00    1.11987D+01
         8    1.58572D-14  1.59D-14  0.00D+00  1.00D+00    1.15846D+01
         9    1.06873D-14  1.07D-14  0.00D+00  1.00D+00    1.16351D+01
        10    9.79501D-15  9.80D-15  0.00D+00  1.00D+00    1.17299D+01
        11    1.91270D-14  1.91D-14  0.00D+00  1.00D+00    1.17533D+01
        12    1.97207D-14  1.97D-14  0.00D+00  1.00D+00    1.20434D+01
        13    8.46124D-15  8.46D-15  0.00D+00  1.00D+00    1.20928D+01
        14    3.12010D-14  3.12D-14  0.00D+00  1.00D+00    2.49127D+01
        15    2.36122D-14  2.36D-14  0.00D+00  1.00D+00    2.49691D+01
        16    3.33764D-14  3.34D-14  0.00D+00  1.00D+00    2.50854D+01
        17    2.42285D-14  2.42D-14  0.00D+00  1.00D+00    2.55359D+01
        18    3.24482D-14  3.24D-14  0.00D+00  1.00D+00    2.55862D+01
        19    4.63208D-14  4.63D-14  0.00D+00  1.00D+00    2.59136D+01
        20    5.93070D-15  5.93D-15  0.00D+00  1.00D+00   -4.73767D-01

 *** THE REQUESTED   19 SOLUTION VECTORS CONVERGED

 Convergence of RSP solution vectors, threshold = 1.00D-03
 ---------------------------------------------------------------
 (dimension of paired reduced space:   38)
 RSP solution vector no.    1; norm of residual   8.02D-15
 RSP solution vector no.    2; norm of residual   7.38D-15
 RSP solution vector no.    3; norm of residual   8.26D-15
 RSP solution vector no.    4; norm of residual   6.53D-15
 RSP solution vector no.    5; norm of residual   6.25D-15
 RSP solution vector no.    6; norm of residual   8.97D-15
 RSP solution vector no.    7; norm of residual   1.16D-14
 RSP solution vector no.    8; norm of residual   1.59D-14
 RSP solution vector no.    9; norm of residual   1.07D-14
 RSP solution vector no.   10; norm of residual   9.80D-15
 RSP solution vector no.   11; norm of residual   1.91D-14
 RSP solution vector no.   12; norm of residual   1.97D-14
 RSP solution vector no.   13; norm of residual   8.46D-15
 RSP solution vector no.   14; norm of residual   3.12D-14
 RSP solution vector no.   15; norm of residual   2.36D-14
 RSP solution vector no.   16; norm of residual   3.34D-14
 RSP solution vector no.   17; norm of residual   2.42D-14
 RSP solution vector no.   18; norm of residual   3.24D-14
 RSP solution vector no.   19; norm of residual   4.63D-14

 *** RSPCTL MICROITERATIONS CONVERGED

@ Singlet transition operator label: XDIPLEN 
@ STATE NO:    1 *TRANSITION MOMENT: -0.96757229     *ENERGY(eV):   12.891861    
@ STATE NO:    2 *TRANSITION MOMENT:  1.58774733E-14 *ENERGY(eV):   13.349648    
@ STATE NO:    3 *TRANSITION MOMENT: -0.19014726     *ENERGY(eV):   19.631746    
@ STATE NO:    4 *TRANSITION MOMENT: -4.20007948E-16 *ENERGY(eV):   21.255826    
@ STATE NO:    5 *TRANSITION MOMENT:  0.11805478     *ENERGY(eV):   30.344010    
@ STATE NO:    6 *TRANSITION MOMENT: -1.86861996E-15 *ENERGY(eV):   304.27032    
@ STATE NO:    7 *TRANSITION MOMENT: -0.10267016     *ENERGY(eV):   304.73330    
@ STATE NO:    8 *TRANSITION MOMENT: -7.34378153E-17 *ENERGY(eV):   315.23289    
@ STATE NO:    9 *TRANSITION MOMENT:  8.43823249E-03 *ENERGY(eV):   316.60654    
@ STATE NO:   10 *TRANSITION MOMENT:  3.21585865E-03 *ENERGY(eV):   319.18595    
@ STATE NO:   11 *TRANSITION MOMENT: -5.99258955E-18 *ENERGY(eV):   319.82289    
@ STATE NO:   12 *TRANSITION MOMENT:  2.90385309E-03 *ENERGY(eV):   327.71812    
@ STATE NO:   13 *TRANSITION MOMENT:  2.10965308E-18 *ENERGY(eV):   329.06204    
@ STATE NO:   14 *TRANSITION MOMENT: -3.09263412E-04 *ENERGY(eV):   677.91015    
@ STATE NO:   15 *TRANSITION MOMENT:  2.93315588E-18 *ENERGY(eV):   679.44486    

@ Singlet transition operator label: YDIPLEN 
@ STATE NO:    1 *TRANSITION MOMENT: -1.12577013E-13 *ENERGY(eV):   12.891861    
@ STATE NO:    2 *TRANSITION MOMENT:   1.2336156     *ENERGY(eV):   13.349648    
@ STATE NO:    3 *TRANSITION MOMENT: -5.31394602E-15 *ENERGY(eV):   19.631746    
@ STATE NO:    4 *TRANSITION MOMENT:  1.72786320E-02 *ENERGY(eV):   21.255826    
@ STATE NO:    5 *TRANSITION MOMENT: -5.59582162E-17 *ENERGY(eV):   30.344010    
@ STATE NO:    6 *TRANSITION MOMENT: -6.98695415E-02 *ENERGY(eV):   304.27032    
@ STATE NO:    7 *TRANSITION MOMENT:  2.26554141E-15 *ENERGY(eV):   304.73330    
@ STATE NO:    8 *TRANSITION MOMENT:  1.86871709E-02 *ENERGY(eV):   315.23289    
@ STATE NO:    9 *TRANSITION MOMENT:  4.02292486E-16 *ENERGY(eV):   316.60654    
@ STATE NO:   10 *TRANSITION MOMENT:  6.93192614E-16 *ENERGY(eV):   319.18595    
@ STATE NO:   11 *TRANSITION MOMENT:  4.70581118E-03 *ENERGY(eV):   319.82289    
@ STATE NO:   12 *TRANSITION MOMENT: -7.03773696E-16 *ENERGY(eV):   327.71812    
@ STATE NO:   13 *TRANSITION MOMENT:  1.03077891E-03 *ENERGY(eV):   329.06204    
@ STATE NO:   14 *TRANSITION MOMENT: -5.71190448E-17 *ENERGY(eV):   677.91015    
@ STATE NO:   15 *TRANSITION MOMENT: -1.05304034E-04 *ENERGY(eV):   679.44486    

@ Singlet transition operator label: ZDIPLEN 
@ STATE NO:    1 *TRANSITION MOMENT:  3.28234881E-15 *ENERGY(eV):   12.891861    
@ STATE NO:    2 *TRANSITION MOMENT: -2.46166841E-15 *ENERGY(eV):   13.349648    
@ STATE NO:    3 *TRANSITION MOMENT:  1.31966701E-16 *ENERGY(eV):   19.631746    
@ STATE NO:    4 *TRANSITION MOMENT:  4.16111744E-16 *ENERGY(eV):   21.255826    
@ STATE NO:    5 *TRANSITION MOMENT: -8.19145161E-16 *ENERGY(eV):   30.344010    
@ STATE NO:    6 *TRANSITION MOMENT:  3.57795378E-16 *ENERGY(eV):   304.27032    
@ STATE NO:    7 *TRANSITION MOMENT:  4.90459777E-16 *ENERGY(eV):   304.73330    
@ STATE NO:    8 *TRANSITION MOMENT: -1.07701024E-16 *ENERGY(eV):   315.23289    
@ STATE NO:    9 *TRANSITION MOMENT:  2.23801832E-17 *ENERGY(eV):   316.60654    
@ STATE NO:   10 *TRANSITION MOMENT:  4.61472497E-17 *ENERGY(eV):   319.18595    
@ STATE NO:   11 *TRANSITION MOMENT: -1.96610157E-17 *ENERGY(eV):   319.82289    
@ STATE NO:   12 *TRANSITION MOMENT: -1.09731810E-17 *ENERGY(eV):   327.71812    
@ STATE NO:   13 *TRANSITION MOMENT: -4.26269134E-18 *ENERGY(eV):   329.06204    
@ STATE NO:   14 *TRANSITION MOMENT: -9.38945994E-19 *ENERGY(eV):   677.91015    
@ STATE NO:   15 *TRANSITION MOMENT: -1.74079786E-19 *ENERGY(eV):   679.44486    


 **************************************************************************************
 *** @ Excit. operator sym 1 & ref. state sym 1 => excited state symmetry 1  ( A  ) ***
 **************************************************************************************



 @ Excited state no:    1 in symmetry 1  ( A  ) - singlet excitation
 -------------------------------------------------------------------

@ Excitation energy :  0.47376717     au
@                       12.891861     eV;   103979.88     cm-1;   1243.8755     kJ / mol

@ Total energy :       -33.003941     au

@ Operator label: XDIPLEN ; Transition moment : -0.96757229     au
@ Oscillator strength (LENGTH)   :  0.29569266      (X-polarization)

@ Operator label: YDIPLEN ; Transition moment : -1.12577013E-13 au
@ Oscillator strength (LENGTH)   :  4.00288536E-27  (Y-polarization)

@ Operator label: ZDIPLEN ; Transition moment :  3.28234881E-15 au
@ Oscillator strength (LENGTH)   :  3.40285285E-30  (Z-polarization)
@ Total oscillator strength (LENGTH)   :  0.29569266    

 Eigenvector for state no.  1

      Index(conf)                         Z operator          Y operator
      ----------                      --------------      --------------
           2                           -0.1573487659        0.0000000000
           4                            0.1672422630        0.0000000000
           8                           -0.9685162782        0.0000000000

       17 elements with absolute value ≤ 1.00D-01 are not printed.

 Printout of coefficients in interval  3.1623E-01 to  1.0000E+00
 ===============================================================

  Coefficient of CSF no.         8 is     -0.96851628   -9.68516278E-01
  Orbital          1   2   4
  Spin coupling    2   1  -1

 Printout of coefficients in interval  1.0000E-01 to  3.1623E-01
 ===============================================================

  Coefficient of CSF no.         2 is     -0.15734877   -1.57348766E-01
  Orbital          1   3
  Spin coupling    2   2

  Coefficient of CSF no.         4 is      0.16724226    1.67242263E-01
  Orbital          1   4
  Spin coupling    2   2

 Norm of printed CI vector ..      0.99075239

 Magnitude of CI coefficients
 ============================
 ( Ranges are relative to norm of vector :  1.00E+00 )

  10- 1 to 10- 0         3    0.99075239E+00      0.9907523897
  10- 2 to 10- 1         1    0.92216199E-02      0.9999740097
  10- 3 to 10- 2         3    0.24298905E-04      0.9999983086
  10- 4 to 10- 3         5    0.16914082E-05      1.0000000000
  Number of coefficients less than 10^-11 times norm is            8


 @ Excited state no:    2 in symmetry 1  ( A  ) - singlet excitation
 -------------------------------------------------------------------

@ Excitation energy :  0.49059054     au
@                       13.349648     eV;   107672.18     cm-1;   1288.0453     kJ / mol

@ Total energy :       -32.987118     au

@ Operator label: XDIPLEN ; Transition moment :  1.58774733E-14 au
@ Oscillator strength (LENGTH)   :  8.24500069E-29  (X-polarization)

@ Operator label: YDIPLEN ; Transition moment :   1.2336156     au
@ Oscillator strength (LENGTH)   :  0.49772289      (Y-polarization)

@ Operator label: ZDIPLEN ; Transition moment : -2.46166841E-15 au
@ Oscillator strength (LENGTH)   :  1.98192410E-30  (Z-polarization)
@ Total oscillator strength (LENGTH)   :  0.49772289    

 Eigenvector for state no.  2

      Index(conf)                         Z operator          Y operator
      ----------                      --------------      --------------
           7                            0.9948868152        0.0000000000
           9                            0.1009344432        0.0000000000

       18 elements with absolute value ≤ 1.00D-01 are not printed.

 Printout of coefficients in interval  3.1623E-01 to  1.0000E+00
 ===============================================================

  Coefficient of CSF no.         7 is      0.99488682    9.94886815E-01
  Orbital          1   2   3
  Spin coupling    2   1  -1

 Printout of coefficients in interval  1.0000E-01 to  3.1623E-01
 ===============================================================

  Coefficient of CSF no.         9 is      0.10093444    1.00934443E-01
  Orbital          1   3   4
  Spin coupling    2   1  -1

 Norm of printed CI vector ..      0.99998754

 Magnitude of CI coefficients
 ============================
 ( Ranges are relative to norm of vector :  1.00E+00 )

  10- 1 to 10- 0         2    0.99998754E+00      0.9999875368
  10- 3 to 10- 2         4    0.11897746E-04      0.9999994346
  10- 4 to 10- 3         2    0.56540945E-06      1.0000000000
  Number of coefficients less than 10^-11 times norm is           12


 @ Excited state no:    3 in symmetry 1  ( A  ) - singlet excitation
 -------------------------------------------------------------------

@ Excitation energy :  0.72145340     au
@                       19.631746     eV;   158340.72     cm-1;   1894.1756     kJ / mol

@ Total energy :       -32.756255     au

@ Operator label: XDIPLEN ; Transition moment : -0.19014726     au
@ Oscillator strength (LENGTH)   :  1.73899040E-02  (X-polarization)

@ Operator label: YDIPLEN ; Transition moment : -5.31394602E-15 au
@ Oscillator strength (LENGTH)   :  1.35816115E-29  (Y-polarization)

@ Operator label: ZDIPLEN ; Transition moment :  1.31966701E-16 au
@ Oscillator strength (LENGTH)   :  8.37617500E-33  (Z-polarization)
@ Total oscillator strength (LENGTH)   :  1.73899040E-02

 Eigenvector for state no.  3

      Index(conf)                         Z operator          Y operator
      ----------                      --------------      --------------
           1                            0.2187261878        0.0000000000
           2                            0.9618507539        0.0000000000
           8                           -0.1471604074        0.0000000000

       17 elements with absolute value ≤ 1.00D-01 are not printed.

 Printout of coefficients in interval  3.1623E-01 to  1.0000E+00
 ===============================================================

  Coefficient of CSF no.         2 is      0.96185075    9.61850754E-01
  Orbital          1   3
  Spin coupling    2   2

 Printout of coefficients in interval  1.0000E-01 to  3.1623E-01
 ===============================================================

  Coefficient of CSF no.         1 is      0.21872619    2.18726188E-01
  Orbital          1   2
  Spin coupling    2   2

  Coefficient of CSF no.         8 is     -0.14716041   -1.47160407E-01
  Orbital          1   2   4
  Spin coupling    2   1  -1

 Norm of printed CI vector ..      0.99465420

 Magnitude of CI coefficients
 ============================
 ( Ranges are relative to norm of vector :  1.00E+00 )

  10- 1 to 10- 0         3    0.99465420E+00      0.9946542036
  10- 2 to 10- 1         1    0.53065040E-02      0.9999607076
  10- 3 to 10- 2         4    0.38250095E-04      0.9999989577
  10- 4 to 10- 3         3    0.10422410E-05      1.0000000000
  10- 6 to 10- 5         1    0.16638162E-10      1.0000000000
  Number of coefficients less than 10^-11 times norm is            8


 @ Excited state no:    4 in symmetry 1  ( A  ) - singlet excitation
 -------------------------------------------------------------------

@ Excitation energy :  0.78113727     au
@                       21.255826     eV;   171439.81     cm-1;   2050.8756     kJ / mol

@ Total energy :       -32.696571     au

@ Operator label: XDIPLEN ; Transition moment : -4.20007948E-16 au
@ Oscillator strength (LENGTH)   :  9.18652196E-32  (X-polarization)

@ Operator label: YDIPLEN ; Transition moment :  1.72786320E-02 au
@ Oscillator strength (LENGTH)   :  1.55472939E-04  (Y-polarization)

@ Operator label: ZDIPLEN ; Transition moment :  4.16111744E-16 au
@ Oscillator strength (LENGTH)   :  9.01687493E-32  (Z-polarization)
@ Total oscillator strength (LENGTH)   :  1.55472939E-04

 Eigenvector for state no.  4

      Index(conf)                         Z operator          Y operator
      ----------                      --------------      --------------
           7                           -0.1009264365        0.0000000000
           9                            0.9948764383        0.0000000000

       18 elements with absolute value ≤ 1.00D-01 are not printed.

 Printout of coefficients in interval  3.1623E-01 to  1.0000E+00
 ===============================================================

  Coefficient of CSF no.         9 is      0.99487644    9.94876438E-01
  Orbital          1   3   4
  Spin coupling    2   1  -1

 Printout of coefficients in interval  1.0000E-01 to  3.1623E-01
 ===============================================================

  Coefficient of CSF no.         7 is     -0.10092644   -1.00926436E-01
  Orbital          1   2   3
  Spin coupling    2   1  -1

 Norm of printed CI vector ..      0.99996527

 Magnitude of CI coefficients
 ============================
 ( Ranges are relative to norm of vector :  1.00E+00 )

  10- 1 to 10- 0         2    0.99996527E+00      0.9999652730
  10- 3 to 10- 2         3    0.33025765E-04      0.9999982987
  10- 4 to 10- 3         3    0.17012730E-05      1.0000000000
  Number of coefficients less than 10^-11 times norm is           12


 @ Excited state no:    5 in symmetry 1  ( A  ) - singlet excitation
 -------------------------------------------------------------------

@ Excitation energy :   1.1151219     au
@                       30.344010     eV;   244740.96     cm-1;   2927.7521     kJ / mol

@ Total energy :       -32.362587     au

@ Operator label: XDIPLEN ; Transition moment :  0.11805478     au
@ Oscillator strength (LENGTH)   :  1.03609183E-02  (X-polarization)

@ Operator label: YDIPLEN ; Transition moment : -5.59582162E-17 au
@ Oscillator strength (LENGTH)   :  2.32787043E-33  (Y-polarization)

@ Operator label: ZDIPLEN ; Transition moment : -8.19145161E-16 au
@ Oscillator strength (LENGTH)   :  4.98830293E-31  (Z-polarization)
@ Total oscillator strength (LENGTH)   :  1.03609183E-02

 Eigenvector for state no.  5

      Index(conf)                         Z operator          Y operator
      ----------                      --------------      --------------
           4                            0.9812219927        0.0000000000
           8                            0.1617469897        0.0000000000

       18 elements with absolute value ≤ 1.00D-01 are not printed.

 Printout of coefficients in interval  3.1623E-01 to  1.0000E+00
 ===============================================================

  Coefficient of CSF no.         4 is      0.98122199    9.81221993E-01
  Orbital          1   4
  Spin coupling    2   2

 Printout of coefficients in interval  1.0000E-01 to  3.1623E-01
 ===============================================================

  Coefficient of CSF no.         8 is      0.16174699    1.61746990E-01
  Orbital          1   2   4
  Spin coupling    2   1  -1

 Norm of printed CI vector ..      0.98895869

 Magnitude of CI coefficients
 ============================
 ( Ranges are relative to norm of vector :  1.00E+00 )

  10- 1 to 10- 0         2    0.98895869E+00      0.9889586877
  10- 2 to 10- 1         2    0.11032706E-01      0.9999913938
  10- 3 to 10- 2         2    0.74090346E-05      0.9999988029
  10- 4 to 10- 3         6    0.11971405E-05      1.0000000000
  Number of coefficients less than 10^-11 times norm is            8


 @ Excited state no:    6 in symmetry 1  ( A  ) - singlet excitation
 -------------------------------------------------------------------

@ Excitation energy :   11.181729     au
@                       304.27032     eV;   2454105.8     cm-1;   29357.624     kJ / mol

@ Total energy :       -22.295980     au

@ Operator label: XDIPLEN ; Transition moment : -1.86861996E-15 au
@ Oscillator strength (LENGTH)   :  2.60291307E-29  (X-polarization)

@ Operator label: YDIPLEN ; Transition moment : -6.98695415E-02 au
@ Oscillator strength (LENGTH)   :  3.63909575E-02  (Y-polarization)

@ Operator label: ZDIPLEN ; Transition moment :  3.57795378E-16 au
@ Oscillator strength (LENGTH)   :  9.54304888E-31  (Z-polarization)
@ Total oscillator strength (LENGTH)   :  3.63909575E-02

 Eigenvector for state no.  6

      Index(conf)                         Z operator          Y operator
      ----------                      --------------      --------------
          10                           -0.9163763983        0.0000000000
          19                            0.2543564141        0.0000000000
          20                            0.2998035781        0.0000000000

       17 elements with absolute value ≤ 1.00D-01 are not printed.

 Printout of coefficients in interval  3.1623E-01 to  1.0000E+00
 ===============================================================

  Coefficient of CSF no.        10 is     -0.91637640   -9.16376398E-01
  Orbital          2   1   3
  Spin coupling    2   1  -1

 Printout of coefficients in interval  1.0000E-01 to  3.1623E-01
 ===============================================================

  Coefficient of CSF no.        19 is      0.25435641    2.54356414E-01
  Orbital          1   2   3   4
  Spin coupling    1   1  -1  -1

  Coefficient of CSF no.        20 is      0.29980358    2.99803578E-01
  Orbital          1   2   3   4
  Spin coupling    1  -1   1  -1

 Norm of printed CI vector ..      0.99432507

 Magnitude of CI coefficients
 ============================
 ( Ranges are relative to norm of vector :  1.00E+00 )

  10- 1 to 10- 0         3    0.99432507E+00      0.9943250742
  10- 2 to 10- 1         1    0.56488555E-02      0.9999739296
  10- 3 to 10- 2         3    0.25850574E-04      0.9999997802
  10- 4 to 10- 3         1    0.21980008E-06      1.0000000000
  Number of coefficients less than 10^-11 times norm is           12


 @ Excited state no:    7 in symmetry 1  ( A  ) - singlet excitation
 -------------------------------------------------------------------

@ Excitation energy :   11.198743     au
@                       304.73330     eV;   2457840.0     cm-1;   29402.295     kJ / mol

@ Total energy :       -22.278965     au

@ Operator label: XDIPLEN ; Transition moment : -0.10267016     au
@ Oscillator strength (LENGTH)   :  7.86985086E-02  (X-polarization)

@ Operator label: YDIPLEN ; Transition moment :  2.26554141E-15 au
@ Oscillator strength (LENGTH)   :  3.83196940E-29  (Y-polarization)

@ Operator label: ZDIPLEN ; Transition moment :  4.90459777E-16 au
@ Oscillator strength (LENGTH)   :  1.79591101E-30  (Z-polarization)
@ Total oscillator strength (LENGTH)   :  7.86985086E-02

 Eigenvector for state no.  7

      Index(conf)                         Z operator          Y operator
      ----------                      --------------      --------------
          11                           -0.9796513095        0.0000000000
          14                            0.1848491796        0.0000000000

       18 elements with absolute value ≤ 1.00D-01 are not printed.

 Printout of coefficients in interval  3.1623E-01 to  1.0000E+00
 ===============================================================

  Coefficient of CSF no.        11 is     -0.97965131   -9.79651310E-01
  Orbital          2   1   4
  Spin coupling    2   1  -1

 Printout of coefficients in interval  1.0000E-01 to  3.1623E-01
 ===============================================================

  Coefficient of CSF no.        14 is      0.18484918    1.84849180E-01
  Orbital          3   1   4
  Spin coupling    2   1  -1

 Norm of printed CI vector ..      0.99388591

 Magnitude of CI coefficients
 ============================
 ( Ranges are relative to norm of vector :  1.00E+00 )

  10- 1 to 10- 0         2    0.99388591E+00      0.9938859075
  10- 2 to 10- 1         3    0.60592632E-02      0.9999451707
  10- 3 to 10- 2         3    0.51841787E-04      0.9999970125
  10- 4 to 10- 3         4    0.29875042E-05      1.0000000000
  Number of coefficients less than 10^-11 times norm is            8


 @ Excited state no:    8 in symmetry 1  ( A  ) - singlet excitation
 -------------------------------------------------------------------

@ Excitation energy :   11.584596     au
@                       315.23289     eV;   2542524.9     cm-1;   30415.351     kJ / mol

@ Total energy :       -21.893113     au

@ Operator label: XDIPLEN ; Transition moment : -7.34378153E-17 au
@ Oscillator strength (LENGTH)   :  4.16513537E-32  (X-polarization)

@ Operator label: YDIPLEN ; Transition moment :  1.86871709E-02 au
@ Oscillator strength (LENGTH)   :  2.69697386E-03  (Y-polarization)

@ Operator label: ZDIPLEN ; Transition moment : -1.07701024E-16 au
@ Oscillator strength (LENGTH)   :  8.95837603E-32  (Z-polarization)
@ Total oscillator strength (LENGTH)   :  2.69697386E-03

 Eigenvector for state no.  8

      Index(conf)                         Z operator          Y operator
      ----------                      --------------      --------------
          10                            0.3727810745        0.0000000000
          19                            0.3108005527        0.0000000000
          20                            0.8735753680        0.0000000000

       17 elements with absolute value ≤ 1.00D-01 are not printed.

 Printout of coefficients in interval  3.1623E-01 to  1.0000E+00
 ===============================================================

  Coefficient of CSF no.        10 is      0.37278107    3.72781075E-01
  Orbital          2   1   3
  Spin coupling    2   1  -1

  Coefficient of CSF no.        20 is      0.87357537    8.73575368E-01
  Orbital          1   2   3   4
  Spin coupling    1  -1   1  -1

 Printout of coefficients in interval  1.0000E-01 to  3.1623E-01
 ===============================================================

  Coefficient of CSF no.        19 is      0.31080055    3.10800553E-01
  Orbital          1   2   3   4
  Spin coupling    1   1  -1  -1

 Norm of printed CI vector ..      0.99869664

 Magnitude of CI coefficients
 ============================
 ( Ranges are relative to norm of vector :  1.00E+00 )

  10- 1 to 10- 0         3    0.99869664E+00      0.9986966366
  10- 2 to 10- 1         1    0.11782224E-02      0.9998748590
  10- 3 to 10- 2         4    0.12514102E-03      1.0000000000
  Number of coefficients less than 10^-11 times norm is           12


 @ Excited state no:    9 in symmetry 1  ( A  ) - singlet excitation
 -------------------------------------------------------------------

@ Excitation energy :   11.635077     au
@                       316.60654     eV;   2553604.1     cm-1;   30547.889     kJ / mol

@ Total energy :       -21.842632     au

@ Operator label: XDIPLEN ; Transition moment :  8.43823249E-03 au
@ Oscillator strength (LENGTH)   :  5.52307525E-04  (X-polarization)

@ Operator label: YDIPLEN ; Transition moment :  4.02292486E-16 au
@ Oscillator strength (LENGTH)   :  1.25534133E-30  (Y-polarization)

@ Operator label: ZDIPLEN ; Transition moment :  2.23801832E-17 au
@ Oscillator strength (LENGTH)   :  3.88512737E-33  (Z-polarization)
@ Total oscillator strength (LENGTH)   :  5.52307525E-04

 Eigenvector for state no.  9

      Index(conf)                         Z operator          Y operator
      ----------                      --------------      --------------
          13                            0.9120300813        0.0000000000
          14                            0.1374423297        0.0000000000
          16                           -0.3824943690        0.0000000000

       17 elements with absolute value ≤ 1.00D-01 are not printed.

 Printout of coefficients in interval  3.1623E-01 to  1.0000E+00
 ===============================================================

  Coefficient of CSF no.        13 is      0.91203008    9.12030081E-01
  Orbital          3   1   2
  Spin coupling    2   1  -1

  Coefficient of CSF no.        16 is     -0.38249437   -3.82494369E-01
  Orbital          4   1   2
  Spin coupling    2   1  -1

 Printout of coefficients in interval  1.0000E-01 to  3.1623E-01
 ===============================================================

  Coefficient of CSF no.        14 is      0.13744233    1.37442330E-01
  Orbital          3   1   4
  Spin coupling    2   1  -1

 Norm of printed CI vector ..      0.99699121

 Magnitude of CI coefficients
 ============================
 ( Ranges are relative to norm of vector :  1.00E+00 )

  10- 1 to 10- 0         3    0.99699121E+00      0.9969912055
  10- 2 to 10- 1         4    0.29605141E-02      0.9999517196
  10- 3 to 10- 2         3    0.46430502E-04      0.9999981501
  10- 4 to 10- 3         2    0.18499059E-05      1.0000000000
  Number of coefficients less than 10^-11 times norm is            8


 @ Excited state no:   10 in symmetry 1  ( A  ) - singlet excitation
 -------------------------------------------------------------------

@ Excitation energy :   11.729868     au
@                       319.18595     eV;   2574408.5     cm-1;   30796.765     kJ / mol

@ Total energy :       -21.747840     au

@ Operator label: XDIPLEN ; Transition moment :  3.21585865E-03 au
@ Oscillator strength (LENGTH)   :  8.08715528E-05  (X-polarization)

@ Operator label: YDIPLEN ; Transition moment :  6.93192614E-16 au
@ Oscillator strength (LENGTH)   :  3.75759295E-30  (Y-polarization)

@ Operator label: ZDIPLEN ; Transition moment :  4.61472497E-17 au
@ Oscillator strength (LENGTH)   :  1.66530400E-32  (Z-polarization)
@ Total oscillator strength (LENGTH)   :  8.08715528E-05

 Eigenvector for state no. 10

      Index(conf)                         Z operator          Y operator
      ----------                      --------------      --------------
          13                            0.3817212546        0.0000000000
          16                            0.9204393089        0.0000000000

       18 elements with absolute value ≤ 1.00D-01 are not printed.

 Printout of coefficients in interval  3.1623E-01 to  1.0000E+00
 ===============================================================

  Coefficient of CSF no.        13 is      0.38172125    3.81721255E-01
  Orbital          3   1   2
  Spin coupling    2   1  -1

  Coefficient of CSF no.        16 is      0.92043931    9.20439309E-01
  Orbital          4   1   2
  Spin coupling    2   1  -1

 Printout of coefficients in interval  1.0000E-01 to  3.1623E-01
 ===============================================================
   ( no coefficients )

 Norm of printed CI vector ..      0.99291964

 Magnitude of CI coefficients
 ============================
 ( Ranges are relative to norm of vector :  1.00E+00 )

  10- 1 to 10- 0         2    0.99291964E+00      0.9929196376
  10- 2 to 10- 1         3    0.69958909E-02      0.9999155285
  10- 3 to 10- 2         7    0.84471479E-04      1.0000000000
  Number of coefficients less than 10^-11 times norm is            8


 @ Excited state no:   11 in symmetry 1  ( A  ) - singlet excitation
 -------------------------------------------------------------------

@ Excitation energy :   11.753275     au
@                       319.82289     eV;   2579545.7     cm-1;   30858.219     kJ / mol

@ Total energy :       -21.724433     au

@ Operator label: XDIPLEN ; Transition moment : -5.99258955E-18 au
@ Oscillator strength (LENGTH)   :  2.81382260E-34  (X-polarization)

@ Operator label: YDIPLEN ; Transition moment :  4.70581118E-03 au
@ Oscillator strength (LENGTH)   :  1.73514848E-04  (Y-polarization)

@ Operator label: ZDIPLEN ; Transition moment : -1.96610157E-17 au
@ Oscillator strength (LENGTH)   :  3.02886244E-33  (Z-polarization)
@ Total oscillator strength (LENGTH)   :  1.73514848E-04

 Eigenvector for state no. 11

      Index(conf)                         Z operator          Y operator
      ----------                      --------------      --------------
          10                            0.1250526452        0.0000000000
          19                            0.9148248539        0.0000000000
          20                           -0.3775970525        0.0000000000

       17 elements with absolute value ≤ 1.00D-01 are not printed.

 Printout of coefficients in interval  3.1623E-01 to  1.0000E+00
 ===============================================================

  Coefficient of CSF no.        19 is      0.91482485    9.14824854E-01
  Orbital          1   2   3   4
  Spin coupling    1   1  -1  -1

  Coefficient of CSF no.        20 is     -0.37759705   -3.77597053E-01
  Orbital          1   2   3   4
  Spin coupling    1  -1   1  -1

 Printout of coefficients in interval  1.0000E-01 to  3.1623E-01
 ===============================================================

  Coefficient of CSF no.        10 is      0.12505265    1.25052645E-01
  Orbital          2   1   3
  Spin coupling    2   1  -1

 Norm of printed CI vector ..      0.99512221

 Magnitude of CI coefficients
 ============================
 ( Ranges are relative to norm of vector :  1.00E+00 )

  10- 1 to 10- 0         3    0.99512221E+00      0.9951222114
  10- 2 to 10- 1         3    0.48742710E-02      0.9999964823
  10- 3 to 10- 2         1    0.27942058E-05      0.9999992765
  10- 4 to 10- 3         1    0.72345432E-06      1.0000000000
  Number of coefficients less than 10^-11 times norm is           12


 @ Excited state no:   12 in symmetry 1  ( A  ) - singlet excitation
 -------------------------------------------------------------------

@ Excitation energy :   12.043420     au
@                       327.71812     eV;   2643225.1     cm-1;   31619.994     kJ / mol

@ Total energy :       -21.434289     au

@ Operator label: XDIPLEN ; Transition moment :  2.90385309E-03 au
@ Oscillator strength (LENGTH)   :  6.77029899E-05  (X-polarization)

@ Operator label: YDIPLEN ; Transition moment : -7.03773696E-16 au
@ Oscillator strength (LENGTH)   :  3.97671648E-30  (Y-polarization)

@ Operator label: ZDIPLEN ; Transition moment : -1.09731810E-17 au
@ Oscillator strength (LENGTH)   :  9.66771088E-34  (Z-polarization)
@ Total oscillator strength (LENGTH)   :  6.77029899E-05

 Eigenvector for state no. 12

      Index(conf)                         Z operator          Y operator
      ----------                      --------------      --------------
          11                           -0.1801183488        0.0000000000
          13                            0.1391995994        0.0000000000
          14                           -0.9725551516        0.0000000000

       17 elements with absolute value ≤ 1.00D-01 are not printed.

 Printout of coefficients in interval  3.1623E-01 to  1.0000E+00
 ===============================================================

  Coefficient of CSF no.        14 is     -0.97255515   -9.72555152E-01
  Orbital          3   1   4
  Spin coupling    2   1  -1

 Printout of coefficients in interval  1.0000E-01 to  3.1623E-01
 ===============================================================

  Coefficient of CSF no.        11 is     -0.18011835   -1.80118349E-01
  Orbital          2   1   4
  Spin coupling    2   1  -1

  Coefficient of CSF no.        13 is      0.13919960    1.39199599E-01
  Orbital          3   1   2
  Spin coupling    2   1  -1

 Norm of printed CI vector ..      0.99768267

 Magnitude of CI coefficients
 ============================
 ( Ranges are relative to norm of vector :  1.00E+00 )

  10- 1 to 10- 0         3    0.99768267E+00      0.9976826709
  10- 2 to 10- 1         3    0.22612997E-02      0.9999439706
  10- 3 to 10- 2         3    0.54921553E-04      0.9999988922
  10- 4 to 10- 3         3    0.11078333E-05      1.0000000000
  Number of coefficients less than 10^-11 times norm is            8


 @ Excited state no:   13 in symmetry 1  ( A  ) - singlet excitation
 -------------------------------------------------------------------

@ Excitation energy :   12.092808     au
@                       329.06204     eV;   2654064.5     cm-1;   31749.662     kJ / mol

@ Total energy :       -21.384901     au

@ Operator label: XDIPLEN ; Transition moment :  2.10965308E-18 au
@ Oscillator strength (LENGTH)   :  3.58804581E-35  (X-polarization)

@ Operator label: YDIPLEN ; Transition moment :  1.03077891E-03 au
@ Oscillator strength (LENGTH)   :  8.56578049E-06  (Y-polarization)

@ Operator label: ZDIPLEN ; Transition moment : -4.26269134E-18 au
@ Oscillator strength (LENGTH)   :  1.46488545E-34  (Z-polarization)
@ Total oscillator strength (LENGTH)   :  8.56578049E-06

 Eigenvector for state no. 13

      Index(conf)                         Z operator          Y operator
      ----------                      --------------      --------------
          17                            0.9946140125        0.0000000000

       19 elements with absolute value ≤ 1.00D-01 are not printed.

 Printout of coefficients in interval  3.1623E-01 to  1.0000E+00
 ===============================================================

  Coefficient of CSF no.        17 is      0.99461401    9.94614013E-01
  Orbital          4   1   3
  Spin coupling    2   1  -1

 Printout of coefficients in interval  1.0000E-01 to  3.1623E-01
 ===============================================================
   ( no coefficients )

 Norm of printed CI vector ..      0.98925703

 Magnitude of CI coefficients
 ============================
 ( Ranges are relative to norm of vector :  1.00E+00 )

  10- 1 to 10- 0         1    0.98925703E+00      0.9892570340
  10- 2 to 10- 1         4    0.10732083E-01      0.9999891166
  10- 3 to 10- 2         2    0.10665977E-04      0.9999997825
  10- 4 to 10- 3         1    0.21745484E-06      1.0000000000
  Number of coefficients less than 10^-11 times norm is           12


 @ Excited state no:   14 in symmetry 1  ( A  ) - singlet excitation
 -------------------------------------------------------------------

@ Excitation energy :   24.912740     au
@                       677.91015     eV;   5467714.4     cm-1;   65408.390     kJ / mol

@ Total energy :       -8.5649681     au

@ Operator label: XDIPLEN ; Transition moment : -3.09263412E-04 au
@ Oscillator strength (LENGTH)   :  1.58850039E-06  (X-polarization)

@ Operator label: YDIPLEN ; Transition moment : -5.71190448E-17 au
@ Oscillator strength (LENGTH)   :  5.41866265E-32  (Y-polarization)

@ Operator label: ZDIPLEN ; Transition moment : -9.38945994E-19 au
@ Oscillator strength (LENGTH)   :  1.46423731E-35  (Z-polarization)
@ Total oscillator strength (LENGTH)   :  1.58850039E-06

 Eigenvector for state no. 14

      Index(conf)                         Z operator          Y operator
      ----------                      --------------      --------------
           3                           -0.1434918158        0.0000000000
           5                            0.9705465222        0.0000000000
           6                           -0.1547747746        0.0000000000
          15                           -0.1096933666        0.0000000000

       16 elements with absolute value ≤ 1.00D-01 are not printed.

 Printout of coefficients in interval  3.1623E-01 to  1.0000E+00
 ===============================================================

  Coefficient of CSF no.         5 is      0.97054652    9.70546522E-01
  Orbital          2   4
  Spin coupling    2   2

 Printout of coefficients in interval  1.0000E-01 to  3.1623E-01
 ===============================================================

  Coefficient of CSF no.         3 is     -0.14349182   -1.43491816E-01
  Orbital          2   3
  Spin coupling    2   2

  Coefficient of CSF no.         6 is     -0.15477477   -1.54774775E-01
  Orbital          3   4
  Spin coupling    2   2

  Coefficient of CSF no.        15 is     -0.10969337   -1.09693367E-01
  Orbital          3   2   4
  Spin coupling    2   1  -1

 Norm of printed CI vector ..      0.99853832

 Magnitude of CI coefficients
 ============================
 ( Ranges are relative to norm of vector :  1.00E+00 )

  10- 1 to 10- 0         4    0.99853832E+00      0.9985383185
  10- 2 to 10- 1         2    0.13802249E-02      0.9999185434
  10- 3 to 10- 2         5    0.81168861E-04      0.9999997123
  10- 4 to 10- 3         1    0.28774722E-06      1.0000000000
  Number of coefficients less than 10^-11 times norm is            8


 @ Excited state no:   15 in symmetry 1  ( A  ) - singlet excitation
 -------------------------------------------------------------------

@ Excitation energy :   24.969140     au
@                       679.44486     eV;   5480092.7     cm-1;   65556.467     kJ / mol

@ Total energy :       -8.5085685     au

@ Operator label: XDIPLEN ; Transition moment :  2.93315588E-18 au
@ Oscillator strength (LENGTH)   :  1.43213056E-34  (X-polarization)

@ Operator label: YDIPLEN ; Transition moment : -1.05304034E-04 au
@ Oscillator strength (LENGTH)   :  1.84587524E-07  (Y-polarization)

@ Operator label: ZDIPLEN ; Transition moment : -1.74079786E-19 au
@ Oscillator strength (LENGTH)   :  5.04439413E-37  (Z-polarization)
@ Total oscillator strength (LENGTH)   :  1.84587524E-07

 Eigenvector for state no. 15

      Index(conf)                         Z operator          Y operator
      ----------                      --------------      --------------
          12                            0.9924198000        0.0000000000
          18                           -0.1171540756        0.0000000000

       18 elements with absolute value ≤ 1.00D-01 are not printed.

 Printout of coefficients in interval  3.1623E-01 to  1.0000E+00
 ===============================================================

  Coefficient of CSF no.        12 is      0.99241980    9.92419800E-01
  Orbital          2   3   4
  Spin coupling    2   1  -1

 Printout of coefficients in interval  1.0000E-01 to  3.1623E-01
 ===============================================================

  Coefficient of CSF no.        18 is     -0.11715408   -1.17154076E-01
  Orbital          4   2   3
  Spin coupling    2   1  -1

 Norm of printed CI vector ..      0.99862214

 Magnitude of CI coefficients
 ============================
 ( Ranges are relative to norm of vector :  1.00E+00 )

  10- 1 to 10- 0         2    0.99862214E+00      0.9986221369
  10- 2 to 10- 1         2    0.13640712E-02      0.9999862082
  10- 3 to 10- 2         3    0.12944948E-04      0.9999991531
  10- 4 to 10- 3         1    0.84689860E-06      1.0000000000
  Number of coefficients less than 10^-11 times norm is           12

@ Singlet transition operator label: XDIPLEN 
@ STATE NO:   16 *TRANSITION MOMENT:  2.76271728E-04 *ENERGY(eV):   682.60918    
@ STATE NO:   17 *TRANSITION MOMENT: -2.82872615E-18 *ENERGY(eV):   694.86604    
@ STATE NO:   18 *TRANSITION MOMENT:  5.87276270E-06 *ENERGY(eV):   696.23584    
@ STATE NO:   19 *TRANSITION MOMENT: -1.34247078E-05 *ENERGY(eV):   705.14437    

@ Singlet transition operator label: YDIPLEN 
@ STATE NO:   16 *TRANSITION MOMENT: -5.22173755E-17 *ENERGY(eV):   682.60918    
@ STATE NO:   17 *TRANSITION MOMENT: -8.51278507E-05 *ENERGY(eV):   694.86604    
@ STATE NO:   18 *TRANSITION MOMENT:  1.73745601E-16 *ENERGY(eV):   696.23584    
@ STATE NO:   19 *TRANSITION MOMENT:  4.96776385E-17 *ENERGY(eV):   705.14437    

@ Singlet transition operator label: ZDIPLEN 
@ STATE NO:   16 *TRANSITION MOMENT: -3.28130359E-19 *ENERGY(eV):   682.60918    
@ STATE NO:   17 *TRANSITION MOMENT: -4.12084628E-20 *ENERGY(eV):   694.86604    
@ STATE NO:   18 *TRANSITION MOMENT: -1.59443863E-19 *ENERGY(eV):   696.23584    
@ STATE NO:   19 *TRANSITION MOMENT: -4.34739909E-20 *ENERGY(eV):   705.14437    


 **************************************************************************************
 *** @ Excit. operator sym 1 & ref. state sym 1 => excited state symmetry 1  ( A  ) ***
 **************************************************************************************



 @ Excited state no:   16 in symmetry 1  ( A  ) - singlet excitation
 -------------------------------------------------------------------

@ Excitation energy :   25.085426     au
@                       682.60918     eV;   5505614.7     cm-1;   65861.777     kJ / mol

@ Total energy :       -8.3922819     au

@ Operator label: XDIPLEN ; Transition moment :  2.76271728E-04 au
@ Oscillator strength (LENGTH)   :  1.27644797E-06  (X-polarization)

@ Operator label: YDIPLEN ; Transition moment : -5.22173755E-17 au
@ Oscillator strength (LENGTH)   :  4.55995241E-32  (Y-polarization)

@ Operator label: ZDIPLEN ; Transition moment : -3.28130359E-19 au
@ Oscillator strength (LENGTH)   :  1.80062409E-36  (Z-polarization)
@ Total oscillator strength (LENGTH)   :  1.27644797E-06

 Eigenvector for state no. 16

      Index(conf)                         Z operator          Y operator
      ----------                      --------------      --------------
           3                            0.8357282686        0.0000000000
           5                            0.1738188997        0.0000000000
          15                            0.5169846407        0.0000000000

       17 elements with absolute value ≤ 1.00D-01 are not printed.

 Printout of coefficients in interval  3.1623E-01 to  1.0000E+00
 ===============================================================

  Coefficient of CSF no.         3 is      0.83572827    8.35728269E-01
  Orbital          2   3
  Spin coupling    2   2

  Coefficient of CSF no.        15 is      0.51698464    5.16984641E-01
  Orbital          3   2   4
  Spin coupling    2   1  -1

 Printout of coefficients in interval  1.0000E-01 to  3.1623E-01
 ===============================================================

  Coefficient of CSF no.         5 is      0.17381890    1.73818900E-01
  Orbital          2   4
  Spin coupling    2   2

 Norm of printed CI vector ..      0.99592787

 Magnitude of CI coefficients
 ============================
 ( Ranges are relative to norm of vector :  1.00E+00 )

  10- 1 to 10- 0         3    0.99592787E+00      0.9959278675
  10- 2 to 10- 1         3    0.40268017E-02      0.9999546692
  10- 3 to 10- 2         3    0.45049832E-04      0.9999997190
  10- 4 to 10- 3         2    0.27998421E-06      0.9999999990
  10- 5 to 10- 4         1    0.10011712E-08      1.0000000000
  Number of coefficients less than 10^-11 times norm is            8


 @ Excited state no:   17 in symmetry 1  ( A  ) - singlet excitation
 -------------------------------------------------------------------

@ Excitation energy :   25.535858     au
@                       694.86604     eV;   5604472.9     cm-1;   67044.384     kJ / mol

@ Total energy :       -7.9418506     au

@ Operator label: XDIPLEN ; Transition moment : -2.82872615E-18 au
@ Oscillator strength (LENGTH)   :  1.36220040E-34  (X-polarization)

@ Operator label: YDIPLEN ; Transition moment : -8.51278507E-05 au
@ Oscillator strength (LENGTH)   :  1.23368001E-07  (Y-polarization)

@ Operator label: ZDIPLEN ; Transition moment : -4.12084628E-20 au
@ Oscillator strength (LENGTH)   :  2.89089303E-38  (Z-polarization)
@ Total oscillator strength (LENGTH)   :  1.23368001E-07

 Eigenvector for state no. 17

      Index(conf)                         Z operator          Y operator
      ----------                      --------------      --------------
          12                           -0.1174535749        0.0000000000
          18                           -0.9926102351        0.0000000000

       18 elements with absolute value ≤ 1.00D-01 are not printed.

 Printout of coefficients in interval  3.1623E-01 to  1.0000E+00
 ===============================================================

  Coefficient of CSF no.        18 is     -0.99261024   -9.92610235E-01
  Orbital          4   2   3
  Spin coupling    2   1  -1

 Printout of coefficients in interval  1.0000E-01 to  3.1623E-01
 ===============================================================

  Coefficient of CSF no.        12 is     -0.11745357   -1.17453575E-01
  Orbital          2   3   4
  Spin coupling    2   1  -1

 Norm of printed CI vector ..      0.99907042

 Magnitude of CI coefficients
 ============================
 ( Ranges are relative to norm of vector :  1.00E+00 )

  10- 1 to 10- 0         2    0.99907042E+00      0.9990704211
  10- 2 to 10- 1         2    0.89751050E-03      0.9999679316
  10- 3 to 10- 2         2    0.31064249E-04      0.9999989958
  10- 4 to 10- 3         2    0.10041847E-05      1.0000000000
  Number of coefficients less than 10^-11 times norm is           12


 @ Excited state no:   18 in symmetry 1  ( A  ) - singlet excitation
 -------------------------------------------------------------------

@ Excitation energy :   25.586197     au
@                       696.23584     eV;   5615521.1     cm-1;   67176.550     kJ / mol

@ Total energy :       -7.8915114     au

@ Operator label: XDIPLEN ; Transition moment :  5.87276270E-06 au
@ Oscillator strength (LENGTH)   :  5.88300728E-10  (X-polarization)

@ Operator label: YDIPLEN ; Transition moment :  1.73745601E-16 au
@ Oscillator strength (LENGTH)   :  5.14922791E-31  (Y-polarization)

@ Operator label: ZDIPLEN ; Transition moment : -1.59443863E-19 au
@ Oscillator strength (LENGTH)   :  4.33640761E-37  (Z-polarization)
@ Total oscillator strength (LENGTH)   :  5.88300728E-10

 Eigenvector for state no. 18

      Index(conf)                         Z operator          Y operator
      ----------                      --------------      --------------
           3                            0.4946997484        0.0000000000
           6                           -0.3118899618        0.0000000000
          15                           -0.8078453093        0.0000000000

       17 elements with absolute value ≤ 1.00D-01 are not printed.

 Printout of coefficients in interval  3.1623E-01 to  1.0000E+00
 ===============================================================

  Coefficient of CSF no.         3 is      0.49469975    4.94699748E-01
  Orbital          2   3
  Spin coupling    2   2

  Coefficient of CSF no.        15 is     -0.80784531   -8.07845309E-01
  Orbital          3   2   4
  Spin coupling    2   1  -1

 Printout of coefficients in interval  1.0000E-01 to  3.1623E-01
 ===============================================================

  Coefficient of CSF no.         6 is     -0.31188996   -3.11889962E-01
  Orbital          3   4
  Spin coupling    2   2

 Norm of printed CI vector ..      0.99461723

 Magnitude of CI coefficients
 ============================
 ( Ranges are relative to norm of vector :  1.00E+00 )

  10- 1 to 10- 0         3    0.99461723E+00      0.9946172332
  10- 2 to 10- 1         2    0.53304123E-02      0.9999476455
  10- 3 to 10- 2         2    0.51753778E-04      0.9999993993
  10- 4 to 10- 3         4    0.59422988E-06      0.9999999935
  10- 5 to 10- 4         1    0.64792021E-08      1.0000000000
  Number of coefficients less than 10^-11 times norm is            8


 @ Excited state no:   19 in symmetry 1  ( A  ) - singlet excitation
 -------------------------------------------------------------------

@ Excitation energy :   25.913580     au
@                       705.14437     eV;   5687373.3     cm-1;   68036.093     kJ / mol

@ Total energy :       -7.5641289     au

@ Operator label: XDIPLEN ; Transition moment : -1.34247078E-05 au
@ Oscillator strength (LENGTH)   :  3.11347821E-09  (X-polarization)

@ Operator label: YDIPLEN ; Transition moment :  4.96776385E-17 au
@ Oscillator strength (LENGTH)   :  4.26341918E-32  (Y-polarization)

@ Operator label: ZDIPLEN ; Transition moment : -4.34739909E-20 au
@ Oscillator strength (LENGTH)   :  3.26509008E-38  (Z-polarization)
@ Total oscillator strength (LENGTH)   :  3.11347821E-09

 Eigenvector for state no. 19

      Index(conf)                         Z operator          Y operator
      ----------                      --------------      --------------
           3                           -0.1872003181        0.0000000000
           5                           -0.1474286129        0.0000000000
           6                           -0.9357722646        0.0000000000
          15                            0.2594552773        0.0000000000

       16 elements with absolute value ≤ 1.00D-01 are not printed.

 Printout of coefficients in interval  3.1623E-01 to  1.0000E+00
 ===============================================================

  Coefficient of CSF no.         6 is     -0.93577226   -9.35772265E-01
  Orbital          3   4
  Spin coupling    2   2

 Printout of coefficients in interval  1.0000E-01 to  3.1623E-01
 ===============================================================

  Coefficient of CSF no.         3 is     -0.18720032   -1.87200318E-01
  Orbital          2   3
  Spin coupling    2   2

  Coefficient of CSF no.         5 is     -0.14742861   -1.47428613E-01
  Orbital          2   4
  Spin coupling    2   2

  Coefficient of CSF no.        15 is      0.25945528    2.59455277E-01
  Orbital          3   2   4
  Spin coupling    2   1  -1

 Norm of printed CI vector ..      0.99976593

 Magnitude of CI coefficients
 ============================
 ( Ranges are relative to norm of vector :  1.00E+00 )

  10- 1 to 10- 0         4    0.99976593E+00      0.9997659270
  10- 2 to 10- 1         1    0.16838019E-03      0.9999343072
  10- 3 to 10- 2         4    0.65275332E-04      0.9999995826
  10- 4 to 10- 3         3    0.41742730E-06      1.0000000000
  Number of coefficients less than 10^-11 times norm is            8


 Time used in polarization propagator calculation is      0.02 CPU seconds for symmetry 1

  Total CPU  time used in RESPONSE:   0.03 seconds
  Total wall time used in RESPONSE:   0.13 seconds


                   .-------------------------------------------.
                   | End of Dynamic Property Section (RESPONS) |
                   `-------------------------------------------'

  Total CPU  time used in DALTON:   0.15 seconds
  Total wall time used in DALTON:   0.74 seconds

 NOTE:    1 warnings have been issued.
 Check output, result, and error files for "WARNING".

 
     Date and time (Linux)  : Tue Jul  7 10:30:52 2026
     Host name              : n-62-31-23                              
