

     ************************************************************************
     *************** Dalton - An Electronic Structure Program ***************
     ************************************************************************

    This is output from DALTON release Dalton2024.0-dev (2024)
         ( Web site: http://daltonprogram.org )

   ----------------------------------------------------------------------------

    NOTE:
     
    Dalton is an experimental code for the evaluation of molecular
    properties using (MC)SCF, DFT, CI, and CC wave functions.
    The authors accept no responsibility for the performance of
    the code or for the correctness of the results.
     
    The code (in whole or part) is provided under a licence and
    is not to be reproduced for further distribution without
    the written permission of the authors or their representatives.
     
    See the home page "http://daltonprogram.org" for further information.
     
    If results obtained with this code are published,
    the appropriate citations would be both of:
     
       K. Aidas, C. Angeli, K. L. Bak, V. Bakken,
       R. Bast, L. Boman, O. Christiansen, R. Cimiraglia,
       S. Coriani, P. Dahle, E. K. Dalskov, U. Ekstroem,
       T. Enevoldsen, J. J. Eriksen, P. Ettenhuber, B. Fernandez,
       L. Ferrighi, H. Fliegl, L. Frediani, K. Hald, A. Halkier,
       C. Haettig, H. Heiberg, T. Helgaker, A. C. Hennum,
       H. Hettema, E. Hjertenaes, S. Hoest, I.-M. Hoeyvik,
       M. F. Iozzi, B. Jansik, H. J. Aa. Jensen, D. Jonsson,
       P. Joergensen, J. Kauczor, S. Kirpekar,
       T. Kjaergaard, W. Klopper, S. Knecht, R. Kobayashi, H. Koch,
       J. Kongsted, A. Krapp, K. Kristensen, A. Ligabue,
       O. B. Lutnaes, J. I. Melo, K. V. Mikkelsen, R. H. Myhre,
       C. Neiss, C. B. Nielsen, P. Norman, J. Olsen,
       J. M. H. Olsen, A. Osted, M. J. Packer, F. Pawlowski,
       T. B. Pedersen, P. F. Provasi, S. Reine, Z. Rinkevicius,
       T. A. Ruden, K. Ruud, V. Rybkin, P. Salek, C. C. M. Samson,
       A. Sanchez de Meras, T. Saue, S. P. A. Sauer,
       B. Schimmelpfennig, K. Sneskov, A. H. Steindal,
       K. O. Sylvester-Hvid, P. R. Taylor, A. M. Teale,
       E. I. Tellgren, D. P. Tew, A. J. Thorvaldsen, L. Thoegersen,
       O. Vahtras, M. A. Watson, D. J. D. Wilson, M. Ziolkowski
       and H. Agren,
       "The Dalton quantum chemistry program system",
       WIREs Comput. Mol. Sci. 2014, 4:269-284 (doi: 10.1002/wcms.1172)
     
    and
     
       Dalton, a molecular electronic structure program,
       Release Dalton2024.0-dev (2024), see http://daltonprogram.org
   ----------------------------------------------------------------------------

    Authors in alphabetical order (Major contribution(s) in parenthesis):

  Kestutis Aidas,              Vilnius University,        Lithuania   (QM/MM)
  Celestino Angeli,            University of Ferrara,     Italy       (NEVPT2)
  Juan J. Aucar,               Northeast National UniversiArgentina   (LRESC, Relativistic Effects on EFG)
  Keld L. Bak,                 UNI-C,                     Denmark     (AOSOPPA, non-adiabatic coupling, magnetic properties)
  Vebjoern Bakken,             University of Oslo,        Norway      (DALTON; geometry optimizer, symmetry detection)
  Radovan Bast,                UiT The Arctic U. of NorwayNorway      (DALTON installation and execution frameworks)
  Pablo Baudin,                University of Valencia,    Spain       (Cholesky excitation energies)
  Linus Boman,                 NTNU,                      Norway      (Cholesky decomposition and subsystems)
  Bruno N. Cabral Tenorio,     Technical Univ. of Denmark,Denmark     (Lanczos-based CC methods)
  Ove Christiansen,            Aarhus University,         Denmark     (CC module)
  Renzo Cimiraglia,            University of Ferrara,     Italy       (NEVPT2)
  Sonia Coriani,               Technical Univ. of Denmark,Denmark     (CC and RESPONS modules)
  Janusz Cukras,               University of Warsaw,      Poland      (MChD in RESPONS)
  Paal Dahle,                  University of Oslo,        Norway      (Parallelization)
  Erik K. Dalskov,             UNI-C,                     Denmark     (SOPPA)
  Thomas Enevoldsen,           Univ. of Southern Denmark, Denmark     (SOPPA)
  Janus J. Eriksen,            Aarhus University,         Denmark     (Polarizable embedding, TDA)
  Rasmus Faber,                Technical Univ. of Denmark,Denmark     (Vib.avg. NMR w. SOPPA, parallel AO-SOPPA, CVS-CC and EOMCC)
  Tobias Fahleson,             KTH Stockholm,             Sweden      (Damped cubic response)
  Berta Fernandez,             U. of Santiago de CompostelSpain       (Doublet spin, ESR in RESPONS)
  Lara Ferrighi,               Aarhus University,         Denmark     (PCM Cubic response)
  Heike Fliegl,                University of Oslo,        Norway      (CCSD(R12))
  Luca Frediani,               UiT The Arctic U. of NorwayNorway      (PCM)
  Emmanuel Fromager,           Univ. Strasbourg,          France      (MC-srDFT)
  Bin Gao,                     UiT The Arctic U. of NorwayNorway      (Gen1Int library)
  Andre S. P. Gomes,           CNRS/Universite de Lille,  France      (Frozen density embedding)
  Christof Haettig,            Ruhr-University Bochum,    Germany     (CC module)
  Kasper Hald,                 Aarhus University,         Denmark     (CC module)
  Asger Halkier,               Aarhus University,         Denmark     (CC module)
  Frederik Beyer Hansen,       University of Copenhagen,  Denmark     (Parallel AO-SOPPA)
  Erik D. Hedegaard,           Univ. of Southern Denmark, Denmark     (Polarizable embedding, QM/MM, and MC-srDFT)
  Hanne Heiberg,               University of Oslo,        Norway      (Geometry analysis, selected one-electron integrals)
  Trygve Helgaker,             University of Oslo,        Norway      (DALTON; ABACUS, ERI, DFT modules, London, and much more)
  Alf Christian Hennum,        University of Oslo,        Norway      (Parity violation)
  Hinne Hettema,               University of Auckland,    New Zealand (Quadratic response in RESPONS; SIRIUS supersymmetry)
  Andreas E. Hillers-Bendtsen, University of Copenhagen,  Denmark     (MP3)
  Eirik Hjertenaes,            NTNU,                      Norway      (Cholesky decomposition)
  Nicolai Machholdt Hoeyer,    Aarhus University,         Denmark     (MP3)
  Pi A. B. Haase,              University of Copenhagen,  Denmark     (Triplet AO-SOPPA)
  Maria Francesca Iozzi,       University of Oslo,        Norway      (RPA)
  Christoph Jacob,             TU Braunschweig            Germany     (Frozen density embedding)
  Brano Jansik,                Technical Univ. of Ostrava Czech Rep.  (DFT cubic response)
  Hans Joergen Aa. Jensen,     Univ. of Southern Denmark, Denmark     (DALTON; SIRIUS, RESPONS, ABACUS, MC-srDFT, and much more)
  Dan Jonsson,                 UiT The Arctic U. of NorwayNorway      (Cubic response in RESPONS module)
  Poul Joergensen,             Aarhus University,         Denmark     (RESPONS, ABACUS, and CC modules)
  Maciej Kaminski,             University of Warsaw,      Poland      (CPPh in RESPONS)
  Joanna Kauczor,              Linkoeping University,     Sweden      (Complex polarization propagator (CPP) module)
  Sheela Kirpekar,             Univ. of Southern Denmark, Denmark     (Mass-velocity & Darwin integrals)
  Frederik Oersted Kjeldal,    Technical Univ. of Denmark,Denmark     (MP3)
  Erik Kjellgren,              Univ. of Southern Denmark, Denmark     (MC-srDFT)
  Wim Klopper,                 KIT Karlsruhe,             Germany     (R12 code in CC, SIRIUS, and ABACUS modules)
  Stefan Knecht,               ETH Zurich,                Switzerland (Parallel CI and MCSCF, MC-srDFT)
  Rika Kobayashi,              Australian National Univ., Australia   (DIIS in CC, London in MCSCF)
  Henrik Koch,                 NTNU,                      Norway      (CC module, Cholesky decomposition)
  Jacob Kongsted,              Univ. of Southern Denmark, Denmark     (Polarizable embedding, polarizable density embedding, QM/MM)
  Andrea Ligabue,              University of Modena,      Italy       (CTOCD, AOSOPPA)
  Nanna H. List,               Univ. of Southern Denmark, Denmark     (Polarizable embedding)
  Ola B. Lutnaes,              University of Oslo,        Norway      (DFT Hessian)
  Juan I. Melo,                University of Buenos Aires,Argentina   (LRESC, Relativistic Effects on NMR Shieldings)
  Kurt V. Mikkelsen,           University of Copenhagen,  Denmark     (MC-SCRF, QM/MM, and MP3)
  Rolf H. Myhre,               NTNU,                      Norway      (Subsystems and CC3)
  Christian Neiss,             Univ. Erlangen-Nuernberg,  Germany     (CCSD(R12))
  Christian B. Nielsen,        University of Copenhagen,  Denmark     (QM/MM)
  Patrick Norman,              KTH Stockholm,             Sweden      (Cubic response and complex frequency response in RESPONS)
  Jeppe Olsen,                 Aarhus University,         Denmark     (SIRIUS CI/density modules)
  Jogvan Magnus H. Olsen,      Aarhus University,         Denmark     (Polarizable embedding and polarizable density embedding)
  Anders Osted,                Copenhagen University,     Denmark     (QM/MM)
  Martin J. Packer,            University of Sheffield,   UK          (SOPPA)
  Filip Pawlowski,             Kazimierz Wielki UniversityPoland      (CC3)
  Morten N. Pedersen,          Univ. of Southern Denmark, Denmark     (Polarizable embedding)
  Thomas B. Pedersen,          University of Oslo,        Norway      (Cholesky decomposition)
  Patricio F. Provasi,         University of Northeastern,Argentina   (Analysis of coupling constants in localized orbitals)
  Peter Reinholdt,             Univ. of Southern Denmark, Denmark     (Polarizable embedding and polarizable density embedding)
  Zilvinas Rinkevicius,        KTH Stockholm,             Sweden      (open-shell DFT, ESR)
  Elias Rudberg,               KTH Stockholm,             Sweden      (DFT grid and basis info)
  Torgeir A. Ruden,            University of Oslo,        Norway      (Numerical derivatives in ABACUS)
  Kenneth Ruud,                UiT The Arctic U. of NorwayNorway      (DALTON; ABACUS magnetic properties and much more)
  Pawel Salek,                 KTH Stockholm,             Sweden      (DALTON; DFT code)
  Claire C. M. Samson,         University of Karlsruhe    Germany     (Boys localization, r12 integrals in ERI)
  Alfredo Sanchez de Meras,    University of Valencia,    Spain       (CC module, Cholesky decomposition)
  Trond Saue,                  Paul Sabatier University,  France      (direct Fock matrix construction)
  Stephan P. A. Sauer,         University of Copenhagen,  Denmark     (SOPPA(CCSD), SOPPA prop., AOSOPPA, vibrational g-factors)
  Bernd Schimmelpfennig,       Forschungszentrum KarlsruheGermany     (AMFI module)
  Anna K. Schnack-Petersen,    University of Copenhagen,  Denmark     (RPA(D) and HRPA(D) properties in AOSOPPA)
  Kristian Sneskov,            Aarhus University,         Denmark     (Polarizable embedding, QM/MM)
  Arnfinn H. Steindal,         UiT The Arctic U. of NorwayNorway      (parallel QM/MM, polarizable embedding)
  Casper Steinmann,            Aalborg University,        Denmark     (QFIT, polarizable embedding)
  K. O. Sylvester-Hvid,        University of Copenhagen,  Denmark     (MC-SCRF)
  Peter R. Taylor,             VLSCI/Univ. of Melbourne,  Australia   (Symmetry handling ABACUS, integral transformation)
  Andrew M. Teale,             University of Nottingham,  England     (DFT-AC, DFT-D)
  David P. Tew,                University of Bristol,     England     (CCSD(R12))
  Julien Toulouse,             Sorbonne Univ.,            France      (MC-srDFT)
  Olav Vahtras,                KTH Stockholm,             Sweden      (Triplet response, spin-orbit, ESR, TDDFT, open-shell DFT)
  Lucas Visscher,              Vrije Universiteit AmsterdaNetherlands (Frozen density embedding)
  David J. Wilson,             La Trobe University,       Australia   (DFT Hessian and DFT magnetizabilities)
  Luna Zamok,                  University of Copenhagen,  Denmark     (Block Lanczos RPA solver in SOPPA module)
  Hans Agren,                  KTH Stockholm,             Sweden      (SIRIUS module, RESPONS, MC-SCRF solvation)
 --------------------------------------------------------------------------------

     Date and time (Linux)  : Tue Jul  7 11:08:27 2026
     Host name              : n-62-31-5                               

 * Work memory size             :   512000000 =  3.815 gigabytes.

 * Directories for basis set searches:
   1) /work3/jochar/DaltonTests
   2) /zhome/d7/7/119775/My_Codes/Dalton_Release/dalton/build_omp_nov24/basis


Compilation information
-----------------------

 Who compiled             | soco
 Host                     | hpclogin1
 System                   | Linux-6.1.112-1.el9.elrepo.x86_64
 CMake generator          | Unix Makefiles
 Processor                | x86_64
 64-bit integers          | OFF
 MPI                      | OFF
 Fortran compiler         | /appl/intel/2023.2.0.49397/compiler/2023.2.0/linux
                          | /bin/intel64/ifort
 Fortran compiler version | ifort (IFORT) 2021.10.0 20230609
 C compiler               | /appl/intel/2023.2.0.49397/compiler/2023.2.0/linux
                          | /bin/intel64/icc
 C compiler version       | icc (ICC) 2021.10.0 20230609
 C++ compiler             | /appl/intel/2023.2.0.49397/compiler/2023.2.0/linux
                          | /bin/intel64/icpc
 C++ compiler version     | icpc (ICC) 2021.10.0 20230609
 Static linking           | OFF
 Last Git revision        | a531ac4fbf115ebda1c90140ce3fd6aa236a2033
 Git branch               | master
 Configuration time       | 2024-11-14 11:23:30.470039

 * Sequential calculation.


   Content of the .dal input file
 ----------------------------------

**DALTON INPUT
.RUN WAVE FUNCTIONS   !tipo di calcolo
.RUN RESPONSE
**INTEGRALS
.DIPLEN               !integrali dell'operatore dipolo elettrico
**WAVE FUNCTION
.HF
.CI
!*PRINT
!.PRINTL
!   0 11
*SCF INP              !parte da Hartree-Fock
.DOUBLY OCCUPIED
3
.THRESH               !soglia di convergenza
 1.0D-10
*CONFIGURATION INPUT
.SPIN MULTIPLICITY
1
.SYMMETRY
1
.INACTIVE ORBITALS !the inner electrons are kept frozen
0
.CAS SPACE
6
.ELECTRONS
4
**RESPONS
*LINEAR
.THCLR
1.0d-9
.DIPLEN
.SINGLE RESIDUE
.ROOTS
300
**END OF INPUT


   Content of the .mol file
 ----------------------------

BASIS
cc-pVDZ
test VQE
dalton test
Atomtypes=2 Angstrom Nosymmetry
Charge=4.0 Atoms=1
Be    0.0000000000000000  0.0000000000000000  0.0
Charge=1.0 Atoms=2
H     1.3300000000000000  0.0000000000000000  0.0
H    -1.3300000000000000  0.0000000000000000  0.0


       *******************************************************************
       *********** Output from DALTON general input processing ***********
       *******************************************************************

 --------------------------------------------------------------------------------
   Overall default print level:    0
   Print level for DALTON.STAT:    1

    HERMIT 1- and 2-electron integral sections will be executed
    "Old" integral transformation used (limited to max 255 basis functions)
    Wave function sections will be executed (SIRIUS module)
    Dynamic molecular response properties section will be executed (RESPONSE module)
 --------------------------------------------------------------------------------


   ****************************************************************************
   *************** Output of molecule and basis set information ***************
   ****************************************************************************


    The two title cards from your ".mol" input:
    --------------------------------------------------------------------------------
 1: test VQE
 2: dalton test
    --------------------------------------------------------------------------------

  Coordinates are entered in Angstrom and converted to atomic units.
          - Conversion factor : 1 bohr = 0.52917721 A

  Atomic type no.    1
  --------------------
  Nuclear charge:   4.00000
  Number of symmetry independent centers:    1
  Number of basis sets to read;    2
  Basis set file used for this atomic type with Z =   4 :
     "/zhome/d7/7/119775/My_Codes/Dalton_Release/dalton/build_omp_nov24/basis/cc-pVDZ"

  Atomic type no.    2
  --------------------
  Nuclear charge:   1.00000
  Number of symmetry independent centers:    2
  Number of basis sets to read;    2
  Basis set file used for this atomic type with Z =   1 :
     "/zhome/d7/7/119775/My_Codes/Dalton_Release/dalton/build_omp_nov24/basis/cc-pVDZ"


                         SYMGRP: Point group information
                         -------------------------------

@    Point group: C1 


                                 Isotopic Masses
                                 ---------------

                           Be          9.012183
                           H           1.007825
                           H           1.007825

                       Total mass:    11.027833 amu
                       Natural abundance:  99.970 %

 Center-of-mass coordinates (a.u.):    0.000000    0.000000    0.000000
 Center-of-mass coordinates (Angs):    0.000000    0.000000    0.000000


  Atoms and basis sets
  --------------------

  Number of atom types :    2
  Total number of atoms:    3

  Basis set used is "cc-pVDZ" from the basis set library.

  label    atoms   charge   prim   cont     basis
  ----------------------------------------------------------------------
  Be          1    4.0000    26    14      [9s4p1d|3s2p1d]                                    
  H           2    1.0000     7     5      [4s1p|2s1p]                                        
  ----------------------------------------------------------------------
  total:      3    6.0000    40    24
  ----------------------------------------------------------------------
  Spherical harmonic basis used.

  Threshold for neglecting AO integrals:  1.00D-12


  Cartesian Coordinates (a.u.)
  ----------------------------

  Total number of coordinates:    9
  Be      :     1  x   0.0000000000    2  y   0.0000000000    3  z   0.0000000000
  H       :     4  x   2.5133357462    5  y   0.0000000000    6  z   0.0000000000
  H       :     7  x  -2.5133357462    8  y   0.0000000000    9  z   0.0000000000


   Interatomic separations (in Angstrom):
   --------------------------------------

            Be          H           H     
            ------      ------      ------
 Be    :    0.000000
 H     :    1.330000    0.000000
 H     :    1.330000    2.660000    0.000000


  Max    interatomic separation is    2.6600 Angstrom (    5.0267 Bohr)
  between atoms    3 and    2, "H     " and "H     ".

  Min HX interatomic separation is    1.3300 Angstrom (    2.5133 Bohr)


  Bond distances (Angstrom):
  --------------------------

                  atom 1     atom 2       distance
                  ------     ------       --------
  bond distance:  H          Be           1.330000
  bond distance:  H          Be           1.330000


  Bond angles (degrees):
  ----------------------

                  atom 1     atom 2     atom 3         angle
                  ------     ------     ------         -----
  bond angle:     H          Be         H            180.000




 Principal moments of inertia (u*A**2) and principal axes
 --------------------------------------------------------

   IA       0.000000          1.000000    0.000000    0.000000
   IB       3.565483          0.000000    1.000000    0.000000
   IC       3.565483          0.000000    0.000000    1.000000


 Rotational constants
 --------------------

@    The molecule is linear.

               B =       141742.08 MHz     (    4.728007 cm-1)


@  Nuclear repulsion energy :    3.381959617895 Hartree


                     .---------------------------------------.
                     | Starting in Integral Section (HERMIT) |
                     `---------------------------------------'



 ***************************************************************************************
 ****************** Output from **INTEGRALS input processing (HERMIT) ******************
 ***************************************************************************************



    *************************************************************************
    ****************** Output from HERMIT input processing ******************
    *************************************************************************


 Default print level:        1

 Calculation of one- and two-electron Hamiltonian integrals.

 The following one-electron property integrals are calculated as requested:
          - overlap integrals
          - dipole length integrals

 Center of mass  (bohr):      0.000000000000      0.000000000000      0.000000000000
 Operator center (bohr):      0.000000000000      0.000000000000      0.000000000000
 Gauge origin    (bohr):      0.000000000000      0.000000000000      0.000000000000
 Dipole origin   (bohr):      0.000000000000      0.000000000000      0.000000000000

Calculation of 2-electron integrals are postponed until they are needed.


     ************************************************************************
     ************************** Output from HERINT **************************
     ************************************************************************



                      Nuclear contribution to dipole moments
                      --------------------------------------

                 au               Debye          C m (/(10**-30)

      x      0.00000000         0.00000000         0.00000000
      y      0.00000000         0.00000000         0.00000000
      z      0.00000000         0.00000000         0.00000000


  Total CPU  time used in HERMIT:   0.02 seconds
  Total wall time used in HERMIT:   0.08 seconds


                        .----------------------------------.
                        | End of Integral Section (HERMIT) |
                        `----------------------------------'



                   .--------------------------------------------.
                   | Starting in Wave Function Section (SIRIUS) |
                   `--------------------------------------------'


     WARNING  Reference state is required for CI response and CI-NO
     WARNING  ".STATE" was not specified for "*CI INPUT",
     WARNING  the reference state is set to be state no.  1

 *** Output from Huckel module :

     Using EWMO model:          T
     Using EHT  model:          F
     Number of Huckel orbitals each symmetry:    7

 EWMO - Energy Weighted Maximum Overlap - is a Huckel type method,
        which normally is better than Extended Huckel Theory.
 Reference: Linderberg and Ohrn, Propagators in Quantum Chemistry (Wiley, 1973)

 Huckel EWMO eigenvalues for symmetry :  1
           -4.742490      -0.737104      -0.620322      -0.206000      -0.206000
           -0.103312      -0.044772

 **********************************************************************
 *SIRIUS* a direct, restricted step, second order MCSCF program       *
 **********************************************************************

 
     Date and time (Linux)  : Tue Jul  7 11:08:27 2026
     Host name              : n-62-31-5                               

 Title lines from ".mol" input file:
     test VQE
     dalton test

 Print level on unit LUPRI =   2 is   0
 Print level on unit LUW4  =   2 is   5

@    Configuration interaction calculation.

@    CI response calculation.

@    CI type: user specified active spaces.
@              Type: complete active space calculation (CAS).

@    This is a combination run starting with
@              a restricted, closed shell Hartree-Fock calculation


 Initial molecular orbitals are obtained according to
 ".MOSTART EWMO  " input option

     Wave function specification
     ============================
@    Wave function type        --- CI ---
@    Number of closed shell electrons           0
@    Number of electrons in active shells       4
@    Total charge of the molecule               2

@    Spin multiplicity and 2 M_S                1         0
@    Total number of symmetries                 1 (point group: C1 )
@    Reference state symmetry                   1 (irrep name : A  )

     Orbital specifications
     ======================
@    Abelian symmetry species          All |    1
@                                          |  A  
                                       --- |  ---
@    Inactive orbitals                   0 |    0
@    Active orbitals                     6 |    6
@    Secondary orbitals                 18 |   18
@    Total number of orbitals           24 |   24
@    Number of basis functions          24 |   24

      -- Initial occupation of symmetries is determined from user input.                      
      -- Initial occupation of symmetries is :
@    Occupied SCF orbitals               3 |    3

     Optimization information
     ========================
@    Number of configurations               105
@    Number of orbital rotations              0
     ------------------------------------------
@    Total number of variables              105

     Maximum number of CI iterations         25
     Threshold for CI convergence      1.00D-05
     Number of CI roots to converge           1

@    Reference state in CI response calculation :       1


 ***********************************************
 ***** DIIS acceleration of SCF iterations *****
 ***********************************************

 C1-DIIS algorithm; max error vectors =    8

 Iter      Total energy        Error norm    Delta(E)  DIIS dim.
 -----------------------------------------------------------------------------

Calculating AOSUPINT

---> (Re)generating AOTWOINT


     ************************************************************************
     ************************** Output from HERINT **************************
     ************************************************************************


 Threshold for neglecting two-electron integrals:  1.00D-12
 HERMIT - Number of two-electron integrals written:       12262 ( 27.2% )
 HERMIT - Megabytes written:                              0.275

     (Precalculated AO two-electron integrals are transformed to P-supermatrix elements.
      Threshold for discarding integrals :  1.00D-12 )

@  1    -15.7172205870        6.44086D-01   -1.57D+01    1
      Virial theorem: -V/T =      2.002756
@    MULPOP   Be      0.79; H      -0.39; H      -0.39; 
   1  Level shift: doubly occupied orbital energies shifted by -2.00D-01
 -----------------------------------------------------------------------------
@  2    -15.7637386627        1.63059D-01   -4.65D-02    2
      Virial theorem: -V/T =      2.002784
@    MULPOP   Be      0.37; H      -0.19; H      -0.19; 
   2  Level shift: doubly occupied orbital energies shifted by -1.00D-01
 -----------------------------------------------------------------------------
@  3    -15.7672525785        1.96409D-02   -3.51D-03    3
      Virial theorem: -V/T =      2.000677
@    MULPOP   Be      0.23; H      -0.12; H      -0.12; 
   3  Level shift: doubly occupied orbital energies shifted by -2.50D-02
 -----------------------------------------------------------------------------
@  4    -15.7673187437        1.44808D-03   -6.62D-05    4
      Virial theorem: -V/T =      2.000149
@    MULPOP   Be      0.22; H      -0.11; H      -0.11; 
 -----------------------------------------------------------------------------
@  5    -15.7673192244        1.19569D-04   -4.81D-07    5
      Virial theorem: -V/T =      2.000103
@    MULPOP   Be      0.22; H      -0.11; H      -0.11; 
 -----------------------------------------------------------------------------
@  6    -15.7673192276        9.52114D-06   -3.18D-09    6
      Virial theorem: -V/T =      2.000103
@    MULPOP   Be      0.22; H      -0.11; H      -0.11; 
 -----------------------------------------------------------------------------
@  7    -15.7673192276        6.73370D-07   -2.13D-11    7
      Virial theorem: -V/T =      2.000104
@    MULPOP   Be      0.22; H      -0.11; H      -0.11; 
 -----------------------------------------------------------------------------
@  8    -15.7673192276        8.11489D-08   -1.14D-13    8
      Virial theorem: -V/T =      2.000104
@    MULPOP   Be      0.22; H      -0.11; H      -0.11; 
 -----------------------------------------------------------------------------
@  9    -15.7673192276        1.45192D-09    0.00D+00    8
      Virial theorem: -V/T =      2.000104
@    MULPOP   Be      0.22; H      -0.11; H      -0.11; 
 -----------------------------------------------------------------------------
@ 10    -15.7673192276        2.17721D-10   -7.11D-15    8
      Virial theorem: -V/T =      2.000104
@    MULPOP   Be      0.22; H      -0.11; H      -0.11; 
 -----------------------------------------------------------------------------
@ 11    -15.7673192276        3.32062D-11    3.55D-15    8

@ *** DIIS converged in  11 iterations !
@     Converged SCF energy, gradient:    -15.767319227642    3.32D-11
    - total time used in SIRFCK :              0.00 seconds

 --- Writing SIRIFC interface file

--------------------------------------------------------------------------------


     .--------------------------------------------------.
     | HF-SCF KT IPs [a.u. & eV] from Koopmans' theorem |
     `--------------------------------------------------'


     HF-SCF KT symmetry 1 ( A  ) in point group C1  -- 3 principal poles with pole strength 1

   ============  ============  ============
       4.679745      0.488952      0.446625
     127.342350     13.305069     12.153289
   ============  ============  ============

@ Summary of HF-SCF KT ionization potentials [eV]:

@ Symmetry 1 (A  ) :   127.342      13.305      12.153

  === End of HF-SCF KT output ===
--------------------------------------------------------------------------------


 CPU and wall time for SCF :       0.093       0.481


 ----- Output from SIRIUS CI module (CICTL) -----




 2-el. integral transformation level 0: Total CPU and WALL times (sec)       0.013       0.057

 (CIST1) 8 lowest diagonal elements:

 Element no. Config.no.    Active energy      Total energy

         1 :          1    -17.8383464809    -14.4563868630
         2 :         16    -17.8146012573    -14.4326416394
         3 :          2    -17.7838186576    -14.4018590397
         4 :         17    -17.3896803583    -14.0077207404
         5 :         19    -17.3896803583    -14.0077207404
         6 :         18    -17.3834919541    -14.0015323362
         7 :         20    -17.3834919541    -14.0015323362
         8 :         22    -17.2472858997    -13.8653262818


 (CIST1) number of start vectors is increased from  1 to  2 because of (near) degeneracy

Lowest 2 elements are used as separate start CI vectors.


 Convergence threshold for CI optimization :     0.00001000


 CI root     eigenvalue        residual norm

    1      -14.4563868630        0.1788986672

 CI root     eigenvalue        residual norm

    1      -14.5981164931        0.0842467691

 CI root     eigenvalue        residual norm

    1      -14.6069825779        0.0133495361

 CI root     eigenvalue        residual norm

    1      -14.6071048780        0.0004229978

 CI root     eigenvalue        residual norm

    1      -14.6071049261        0.0000206285

 CI root     eigenvalue        residual norm

    1      -14.6071049262        0.0000003635 converged

 The requested root number is now converged.


 *** CI converged in  6 iterations.



@ Final CI energies and residuals in symmetry 1 (irrep A  )
@    1      -14.607104926175545       3.63D-07

 Writing SIRIFC interface file for CI root no. 1

 CPU and wall time for CI :       0.025       0.126


                       .-----------------------------------.
                       | --- Final results from SIRIUS --- |
                       `-----------------------------------'


@    Spin multiplicity:           1
@    Spatial symmetry:            1 ( irrep  A   in C1  )
@    Total charge of molecule:    2

@    This was a CI calculation.
@    State number:                1

@    Final CI energy:             -14.607104926176
@    Nuclear repulsion:             3.381959617895
@    Electronic energy:           -17.989064544070

@    Final gradient norm:           0.000000363464

 
     Date and time (Linux)  : Tue Jul  7 11:08:28 2026
     Host name              : n-62-31-5                               

 Occupancies of natural orbitals
 -------------------------------

 Symmetry 1  ( A  ) -- Total occupation in this symmetry is   4.000000000

   1.999997803   1.157768734   0.841921761   0.000155574   0.000155574
   0.000000553

  Effective numbers of unpaired electrons this symmetry Eqs. 1) and 2):  1.95  1.90

  Total effective number of unpaired electrons :
  Eq. 1) sum(i) [(2 - n_i) n_i]    =  1.9507
  Eq. 2) sum(i) [(2 - n_i) n_i]**2 =  1.9015
 (Reference: M. Head-Gordon, Chemical Physics Letters 372 (2003) 508-511)

  --- NOTE THAT THE OCCUPATION NUMBERS ARE FOR ANALYSIS PURPOSE ONLY
  --- The orbital coefficients have NOT been transformed
  --- to ordered natural orbitals.

File label for MO orbitals:   7Jul26    CIORB  

 (Only coefficients > 0.0100 are printed.)

 Molecular orbitals for symmetry species 1  (A  )
 ------------------------------------------------

    Orbital         1        2        3        4        5        6        7
   1 Be  :1s     1.0010  -0.0416   0.0000  -0.0000  -0.0000  -0.1054   0.0000
   2 Be  :1s     0.0026   0.3322   0.0000  -0.0000  -0.0000  -0.1746   0.0000
   3 Be  :1s    -0.0034   0.1569  -0.0000  -0.0000  -0.0000   2.3602   0.0000
   4 Be  :2px    0.0000   0.0000  -0.4033   0.0000  -0.0000  -0.0000   0.1981
   5 Be  :2py   -0.0000   0.0000  -0.0000   0.0228  -0.2516  -0.0000   0.0000
   6 Be  :2pz    0.0000   0.0000  -0.0000   0.2516   0.0228   0.0000   0.0000
   7 Be  :2px   -0.0000  -0.0000  -0.1288   0.0000  -0.0000   0.0000  -2.3709
   8 Be  :2py   -0.0000   0.0000  -0.0000   0.0745  -0.8223  -0.0000   0.0000
   9 Be  :2pz    0.0000   0.0000  -0.0000   0.8223   0.0745   0.0000   0.0000
  12 Be  :3d0   -0.0006  -0.0175  -0.0000   0.0000   0.0000  -0.0473   0.0000
  14 Be  :3d2+   0.0010   0.0303   0.0000  -0.0000  -0.0000   0.0820  -0.0000
  15 H   :1s     0.0018   0.4686  -0.5263  -0.0000   0.0000  -0.3032   0.0815
  16 H   :1s    -0.0015  -0.0626   0.1386   0.0000  -0.0000  -0.9850   1.3243
  17 H   :2px   -0.0009  -0.0195   0.0146  -0.0000  -0.0000   0.0301  -0.0196
  18 H   :2py   -0.0000   0.0000  -0.0000   0.0010  -0.0111  -0.0000   0.0000
  19 H   :2pz    0.0000   0.0000  -0.0000   0.0111   0.0010   0.0000   0.0000
  20 H   :1s     0.0018   0.4686   0.5263   0.0000   0.0000  -0.3032  -0.0815
  21 H   :1s    -0.0015  -0.0626  -0.1386  -0.0000  -0.0000  -0.9850  -1.3243
  22 H   :2px    0.0009   0.0195   0.0146   0.0000   0.0000  -0.0301  -0.0196
  23 H   :2py   -0.0000   0.0000  -0.0000   0.0010  -0.0111  -0.0000   0.0000
  24 H   :2pz    0.0000   0.0000  -0.0000   0.0111   0.0010   0.0000   0.0000

    Orbital         8        9       10       11       12       13       14
   1 Be  :1s    -0.6189   0.0000  -0.0000   0.0000   0.2482  -0.0000   0.0000
   2 Be  :1s    -1.6988   0.0000  -0.0000   0.0000   0.3942   0.0000   0.0000
   3 Be  :1s     0.6278   0.0000  -0.0000   0.0000   1.9713   0.0000   0.0000
   4 Be  :2px    0.0000   0.0000   0.0000  -1.4128  -0.0000   0.0000   0.0000
   5 Be  :2py    0.0000   1.2025   0.0116   0.0000   0.0000   0.0000   0.0000
   6 Be  :2pz   -0.0000  -0.0116   1.2025   0.0000  -0.0000   0.0000  -0.0000
   7 Be  :2px   -0.0000   0.0000   0.0000  -1.8243   0.0000   0.0000  -0.0000
   8 Be  :2py    0.0000  -0.9253  -0.0089   0.0000   0.0000   0.0000  -0.0000
   9 Be  :2pz   -0.0000   0.0089  -0.9253   0.0000  -0.0000  -0.0000  -0.0000
  10 Be  :3d2-   0.0000  -0.0000  -0.0000  -0.0000   0.0000   0.0000   0.9769
  12 Be  :3d0   -0.0506  -0.0000   0.0000   0.0000  -0.5125  -0.0000  -0.0000
  13 Be  :3d1+   0.0000   0.0000  -0.0000   0.0000   0.0000   0.9769   0.0000
  14 Be  :3d2+   0.0877   0.0000  -0.0000  -0.0000   0.8877   0.0000   0.0000
  15 H   :1s     0.0145  -0.0000  -0.0000  -0.1290   0.5894  -0.0000  -0.0000
  16 H   :1s     0.6033   0.0000   0.0000   2.5464  -2.2145  -0.0000   0.0000
  17 H   :2px    0.0091   0.0000  -0.0000   0.0274   0.1113   0.0000   0.0000
  18 H   :2py    0.0000   0.0242   0.0002   0.0000   0.0000   0.0000   0.0275
  19 H   :2pz   -0.0000  -0.0002   0.0242   0.0000  -0.0000   0.0275  -0.0000
  20 H   :1s     0.0145  -0.0000   0.0000   0.1290   0.5894  -0.0000  -0.0000
  21 H   :1s     0.6033   0.0000  -0.0000  -2.5464  -2.2145   0.0000   0.0000
  22 H   :2px   -0.0091  -0.0000   0.0000   0.0274  -0.1113   0.0000   0.0000
  23 H   :2py    0.0000   0.0242   0.0002   0.0000   0.0000   0.0000  -0.0275
  24 H   :2pz   -0.0000  -0.0002   0.0242   0.0000  -0.0000  -0.0275  -0.0000

    Orbital        15       16
  11 Be  :3d1-   1.0000   0.0000
  12 Be  :3d0    0.0000   0.8660
  14 Be  :3d2+   0.0000   0.5000

 Printout of CI-coefficients abs greater than 0.05000 for root  1
 *** NOTE: this root is the CI reference state ***

 Printout of coefficients in interval  3.1623E-01 to  1.0000E+00
 ===============================================================

  Coefficient of CSF no.         1 is      0.75000784    7.50007837E-01
  Orbital          1   2
  Spin coupling    2   2

  Coefficient of CSF no.         2 is     -0.64880328   -6.48803282E-01
  Orbital          1   3
  Spin coupling    2   2

 Printout of coefficients in interval  1.0000E-01 to  3.1623E-01
 ===============================================================

  Coefficient of CSF no.        22 is     -0.12753106   -1.27531061E-01
  Orbital          1   2   6
  Spin coupling    2   1  -1

 Printout of coefficients in interval  5.0000E-02 to  1.0000E-01
 ===============================================================
   ( no coefficients )

 Norm of printed CI vector ..      0.99972163

 Magnitude of CI coefficients
 ============================
 ( Ranges are relative to norm of vector :  1.00E+00 )

  10- 1 to 10- 0         3    0.99972163E+00      0.9997216255
  10- 2 to 10- 1         1    0.10764671E-03      0.9998292722
  10- 3 to 10- 2         3    0.16910640E-03      0.9999983786
  10- 4 to 10- 3         9    0.16045942E-05      0.9999999832
  10- 5 to 10- 4         6    0.16820758E-07      1.0000000000
  10- 6 to 10- 5         5    0.27655454E-10      1.0000000000
  Number of coefficients less than 10^-11 times norm is           78

  Total CPU  time used in SIRIUS :   0.14 seconds
  Total wall time used in SIRIUS :   0.73 seconds

 
     Date and time (Linux)  : Tue Jul  7 11:08:28 2026
     Host name              : n-62-31-5                               


                     .---------------------------------------.
                     | End of Wave Function Section (SIRIUS) |
                     `---------------------------------------'



                 .------------------------------------------------.
                 | Starting in Dynamic Property Section (RESPONS) |
                 `------------------------------------------------'


 ----------------------------------------------------------------------------------------
  RESPONSE  -  an MCSCF, MC-srDFT, DFT, SOPPA and SOPPA-srDFT response property program
 ----------------------------------------------------------------------------------------

 This is a configuration interaction response calculation.
   Note: this is equivalent to a CI sum-over-states calculation of response properties.


 -------- OUTPUT FROM RESPONSE INPUT PROCESSING --------




  Linear Response single residue calculation
 -------------------------------------------


    4 input options by user.

 Print level                                    : IPRPP  =   2
 Maximum number of iterations for eigenval.eqs. : MAXITP =  60
 Threshold for convergence of eigenvalue eqs.   : THCPP  = 1.000D-03
 Maximum iterations in optimal orbital algorithm: MAXITO =   5

    300 Excitation energies are calculated for symmetry no.    1

      3 property residues are calculated with labels:

               XDIPLEN 
               YDIPLEN 
               ZDIPLEN 

 Old direct access AO file found, SORTA skipped.

 2-el. integral transformation level 4: Total CPU and WALL times (sec)       0.016       0.081


 CI energy            :      -14.607104926175545
 -- inactive part     :        3.381959617894736
 --   active part     :      -17.989064544070281
 -- nuclear repulsion :        3.381959617894736


                         *******************************
                         *** CI response calculation ***
                         *******************************

 ----------------------------------------------------------------
 ----- Linear response calculation
 ----- Symmetry of excitation/property operator(s)    1  ( A  )
 ----------------------------------------------------------------

 Number of excitations of this symmetry          300
 Number of response properties of this symmetry    0
 Number of C6/C8 properties of this symmetry       0


 Perturbation symmetry.     KSYMOP:           1
 Perturbation spin symmetry.TRPLET:           F
 Orbital variables.         KZWOPT:           0
 Configuration variables.   KZCONF:         105
 Total number of variables. KZVAR :         105

 ** RSPVAR ** Number of PP start vectors  300
   exceeds the maximum number of variables  104
   Number of start vectors reset to number of variables



 --- EXCITATION ENERGIES AND TRANSITION MOMENT CALCULATION (MCTDHF) ---

 Operator symmetry = 1  ( A  ); triplet =   F

RSPORT:    1 out of  105 new trial vectors linear dependent

 ** RSPCTL MICROITERATION NUMBER    1

 *** WARNING Complex eigenvalue in reduced response eq. of symmetry  1
 *** WARNING real and imaginary part : 208 114  -6.111305D-01   4.387788D-16

 *** WARNING Complex eigenvalue in reduced response eq. of symmetry  1
 *** WARNING real and imaginary part : 208 115  -6.111305D-01  -4.387788D-16

 **WARNING**  EIGENVALUES NOT PAIRED. Dimension of reduced matrix =  208
         3      6.11130527D-01     -6.14876551D-01

 **WARNING**  EIGENVALUES NOT PAIRED. Dimension of reduced matrix =  208
         4      6.11130527D-01     -6.14876551D-01

 **WARNING**  EIGENVALUES NOT PAIRED. Dimension of reduced matrix =  208
         5      6.14876551D-01     -7.59159986D-01

 **WARNING**  EIGENVALUES NOT PAIRED. Dimension of reduced matrix =  208
         6      6.14876551D-01     -7.83198567D-01

 **WARNING**  EIGENVALUES NOT PAIRED. Dimension of reduced matrix =  208
         7      7.59159986D-01     -1.14573628D+00

 **WARNING**  EIGENVALUES NOT PAIRED. Dimension of reduced matrix =  208
         8      7.83198567D-01     -1.14573628D+00

 **WARNING**  EIGENVALUES NOT PAIRED. Dimension of reduced matrix =  208
         9      1.14573628D+00     -1.16483118D+00

 **WARNING**  EIGENVALUES NOT PAIRED. Dimension of reduced matrix =  208
        10      1.14573628D+00     -1.34472983D+00

 **WARNING**  EIGENVALUES NOT PAIRED. Dimension of reduced matrix =  208
        11      1.16483118D+00     -1.34472983D+00

 **WARNING**  EIGENVALUES NOT PAIRED. Dimension of reduced matrix =  208
        12      1.34472983D+00     -1.47429892D+00

 **WARNING**  EIGENVALUES NOT PAIRED. Dimension of reduced matrix =  208
        13      1.34472983D+00     -4.40294606D+00

 **WARNING**  EIGENVALUES NOT PAIRED. Dimension of reduced matrix =  208
        14      1.47429892D+00     -4.47473322D+00

 **WARNING**  EIGENVALUES NOT PAIRED. Dimension of reduced matrix =  208
        15      4.40294606D+00     -4.81814259D+00

 **WARNING**  EIGENVALUES NOT PAIRED. Dimension of reduced matrix =  208
        16      4.47473322D+00     -4.81814259D+00

 **WARNING**  EIGENVALUES NOT PAIRED. Dimension of reduced matrix =  208
        17      4.81814259D+00     -4.86804730D+00

 **WARNING**  EIGENVALUES NOT PAIRED. Dimension of reduced matrix =  208
        18      4.81814259D+00     -4.86804730D+00

 **WARNING**  EIGENVALUES NOT PAIRED. Dimension of reduced matrix =  208
        19      4.86804730D+00     -5.00758601D+00

 **WARNING**  EIGENVALUES NOT PAIRED. Dimension of reduced matrix =  208
        20      4.86804730D+00     -5.06385492D+00

 **WARNING**  EIGENVALUES NOT PAIRED. Dimension of reduced matrix =  208
        21      5.00758601D+00     -5.15585595D+00

 **WARNING**  EIGENVALUES NOT PAIRED. Dimension of reduced matrix =  208
        22      5.06385492D+00     -5.15585595D+00

 **WARNING**  EIGENVALUES NOT PAIRED. Dimension of reduced matrix =  208
        23      5.15585595D+00     -5.16295200D+00

 **WARNING**  EIGENVALUES NOT PAIRED. Dimension of reduced matrix =  208
        24      5.15585595D+00     -5.16295200D+00

 **WARNING**  EIGENVALUES NOT PAIRED. Dimension of reduced matrix =  208
        25      5.16295200D+00     -5.34577961D+00

 **WARNING**  EIGENVALUES NOT PAIRED. Dimension of reduced matrix =  208
        26      5.16295200D+00     -5.35099765D+00

 **WARNING**  EIGENVALUES NOT PAIRED. Dimension of reduced matrix =  208
        27      5.34577961D+00     -5.51713261D+00

 **WARNING**  EIGENVALUES NOT PAIRED. Dimension of reduced matrix =  208
        28      5.35099765D+00     -5.52499159D+00

 **WARNING**  EIGENVALUES NOT PAIRED. Dimension of reduced matrix =  208
        29      5.51713261D+00     -5.52499159D+00

 **WARNING**  EIGENVALUES NOT PAIRED. Dimension of reduced matrix =  208
        30      5.52499159D+00     -5.53371393D+00

 **WARNING**  EIGENVALUES NOT PAIRED. Dimension of reduced matrix =  208
        31      5.52499159D+00     -5.54766417D+00

 **WARNING**  EIGENVALUES NOT PAIRED. Dimension of reduced matrix =  208
        32      5.53371393D+00     -5.54786441D+00

 **WARNING**  EIGENVALUES NOT PAIRED. Dimension of reduced matrix =  208
        33      5.54766417D+00     -5.54786441D+00

 **WARNING**  EIGENVALUES NOT PAIRED. Dimension of reduced matrix =  208
        34      5.54786441D+00     -5.57275394D+00

 **WARNING**  EIGENVALUES NOT PAIRED. Dimension of reduced matrix =  208
        35      5.54786441D+00     -5.69555905D+00

 **WARNING**  EIGENVALUES NOT PAIRED. Dimension of reduced matrix =  208
        36      5.57275394D+00     -5.69555905D+00

 **WARNING**  EIGENVALUES NOT PAIRED. Dimension of reduced matrix =  208
        37      5.69555905D+00     -5.72145352D+00

 **WARNING**  EIGENVALUES NOT PAIRED. Dimension of reduced matrix =  208
        38      5.69555905D+00     -5.72145352D+00

 **WARNING**  EIGENVALUES NOT PAIRED. Dimension of reduced matrix =  208
        39      5.72145352D+00     -5.76467454D+00

 **WARNING**  EIGENVALUES NOT PAIRED. Dimension of reduced matrix =  208
        40      5.72145352D+00     -5.76467454D+00

 **WARNING**  EIGENVALUES NOT PAIRED. Dimension of reduced matrix =  208
        41      5.76467454D+00     -5.78834798D+00

 **WARNING**  EIGENVALUES NOT PAIRED. Dimension of reduced matrix =  208
        42      5.76467454D+00     -5.78834798D+00

 **WARNING**  EIGENVALUES NOT PAIRED. Dimension of reduced matrix =  208
        43      5.78834798D+00     -5.93680798D+00

 **WARNING**  EIGENVALUES NOT PAIRED. Dimension of reduced matrix =  208
        44      5.78834798D+00     -5.95547848D+00

 **WARNING**  EIGENVALUES NOT PAIRED. Dimension of reduced matrix =  208
        45      5.93680798D+00     -6.16507048D+00

 **WARNING**  EIGENVALUES NOT PAIRED. Dimension of reduced matrix =  208
        46      5.95547848D+00     -6.16507048D+00

 **WARNING**  EIGENVALUES NOT PAIRED. Dimension of reduced matrix =  208
        47      6.16507048D+00     -6.34290356D+00

 **WARNING**  EIGENVALUES NOT PAIRED. Dimension of reduced matrix =  208
        48      6.16507048D+00     -6.34290356D+00

 **WARNING**  EIGENVALUES NOT PAIRED. Dimension of reduced matrix =  208
        49      6.34290356D+00     -6.37438305D+00

 **WARNING**  EIGENVALUES NOT PAIRED. Dimension of reduced matrix =  208
        50      6.34290356D+00     -6.41182098D+00

 **WARNING**  EIGENVALUES NOT PAIRED. Dimension of reduced matrix =  208
        51      6.37438305D+00     -6.55884509D+00

 **WARNING**  EIGENVALUES NOT PAIRED. Dimension of reduced matrix =  208
        52      6.41182098D+00     -6.55884509D+00

 **WARNING**  EIGENVALUES NOT PAIRED. Dimension of reduced matrix =  208
        53      6.55884509D+00     -1.04759555D+01

 **WARNING**  EIGENVALUES NOT PAIRED. Dimension of reduced matrix =  208
        54      6.55884509D+00     -1.09850039D+01

 **WARNING**  EIGENVALUES NOT PAIRED. Dimension of reduced matrix =  208
        55      1.04759555D+01     -1.09850039D+01

 **WARNING**  EIGENVALUES NOT PAIRED. Dimension of reduced matrix =  208
        56      1.09850039D+01     -1.10847313D+01

 **WARNING**  EIGENVALUES NOT PAIRED. Dimension of reduced matrix =  208
        57      1.09850039D+01     -1.10847313D+01

 **WARNING**  EIGENVALUES NOT PAIRED. Dimension of reduced matrix =  208
        58      1.10847313D+01     -1.12395595D+01

 **WARNING**  EIGENVALUES NOT PAIRED. Dimension of reduced matrix =  208
        59      1.10847313D+01     -1.12956814D+01

 **WARNING**  EIGENVALUES NOT PAIRED. Dimension of reduced matrix =  208
        60      1.12395595D+01     -1.15134741D+01

 **WARNING**  EIGENVALUES NOT PAIRED. Dimension of reduced matrix =  208
        61      1.12956814D+01     -1.15134741D+01

 **WARNING**  EIGENVALUES NOT PAIRED. Dimension of reduced matrix =  208
        62      1.15134741D+01     -1.15377888D+01

 **WARNING**  EIGENVALUES NOT PAIRED. Dimension of reduced matrix =  208
        63      1.15134741D+01     -1.15566613D+01

 **WARNING**  EIGENVALUES NOT PAIRED. Dimension of reduced matrix =  208
        64      1.15377888D+01     -1.17846738D+01

 **WARNING**  EIGENVALUES NOT PAIRED. Dimension of reduced matrix =  208
        65      1.15566613D+01     -1.17846738D+01

 **WARNING**  EIGENVALUES NOT PAIRED. Dimension of reduced matrix =  208
        66      1.17846738D+01     -1.17934382D+01

 **WARNING**  EIGENVALUES NOT PAIRED. Dimension of reduced matrix =  208
        67      1.17846738D+01     -1.17934382D+01

 **WARNING**  EIGENVALUES NOT PAIRED. Dimension of reduced matrix =  208
        68      1.17934382D+01     -1.18561010D+01

 **WARNING**  EIGENVALUES NOT PAIRED. Dimension of reduced matrix =  208
        69      1.17934382D+01     -1.18561010D+01

 **WARNING**  EIGENVALUES NOT PAIRED. Dimension of reduced matrix =  208
        70      1.18561010D+01     -1.18683746D+01

 **WARNING**  EIGENVALUES NOT PAIRED. Dimension of reduced matrix =  208
        71      1.18561010D+01     -1.18683746D+01

 **WARNING**  EIGENVALUES NOT PAIRED. Dimension of reduced matrix =  208
        72      1.18683746D+01     -1.18772986D+01

 **WARNING**  EIGENVALUES NOT PAIRED. Dimension of reduced matrix =  208
        73      1.18683746D+01     -1.18904178D+01

 **WARNING**  EIGENVALUES NOT PAIRED. Dimension of reduced matrix =  208
        74      1.18772986D+01     -1.20060029D+01

 **WARNING**  EIGENVALUES NOT PAIRED. Dimension of reduced matrix =  208
        75      1.18904178D+01     -1.21357788D+01

 **WARNING**  EIGENVALUES NOT PAIRED. Dimension of reduced matrix =  208
        76      1.20060029D+01     -1.21357788D+01

 **WARNING**  EIGENVALUES NOT PAIRED. Dimension of reduced matrix =  208
        77      1.21357788D+01     -1.21461447D+01

 **WARNING**  EIGENVALUES NOT PAIRED. Dimension of reduced matrix =  208
        78      1.21357788D+01     -1.21461447D+01

 **WARNING**  EIGENVALUES NOT PAIRED. Dimension of reduced matrix =  208
        79      1.21461447D+01     -1.23188753D+01

 **WARNING**  EIGENVALUES NOT PAIRED. Dimension of reduced matrix =  208
        80      1.21461447D+01     -1.23188753D+01

 **WARNING**  EIGENVALUES NOT PAIRED. Dimension of reduced matrix =  208
        81      1.23188753D+01     -1.23473099D+01

 **WARNING**  EIGENVALUES NOT PAIRED. Dimension of reduced matrix =  208
        82      1.23188753D+01     -1.23518595D+01

 **WARNING**  EIGENVALUES NOT PAIRED. Dimension of reduced matrix =  208
        83      1.23473099D+01     -1.23518595D+01

 **WARNING**  EIGENVALUES NOT PAIRED. Dimension of reduced matrix =  208
        84      1.23518595D+01     -1.23562235D+01

 **WARNING**  EIGENVALUES NOT PAIRED. Dimension of reduced matrix =  208
        85      1.23518595D+01     -1.25413559D+01

 **WARNING**  EIGENVALUES NOT PAIRED. Dimension of reduced matrix =  208
        86      1.23562235D+01     -1.25413559D+01

 **WARNING**  EIGENVALUES NOT PAIRED. Dimension of reduced matrix =  208
        87      1.25413559D+01     -1.25739331D+01

 **WARNING**  EIGENVALUES NOT PAIRED. Dimension of reduced matrix =  208
        88      1.25413559D+01     -1.25923054D+01

 **WARNING**  EIGENVALUES NOT PAIRED. Dimension of reduced matrix =  208
        89      1.25739331D+01     -1.25923054D+01

 **WARNING**  EIGENVALUES NOT PAIRED. Dimension of reduced matrix =  208
        90      1.25923054D+01     -1.26082588D+01

 **WARNING**  EIGENVALUES NOT PAIRED. Dimension of reduced matrix =  208
        91      1.25923054D+01     -1.26279263D+01

 **WARNING**  EIGENVALUES NOT PAIRED. Dimension of reduced matrix =  208
        92      1.26082588D+01     -1.26308675D+01

 **WARNING**  EIGENVALUES NOT PAIRED. Dimension of reduced matrix =  208
        93      1.26279263D+01     -1.28048391D+01

 **WARNING**  EIGENVALUES NOT PAIRED. Dimension of reduced matrix =  208
        94      1.26308675D+01     -1.28048391D+01

 **WARNING**  EIGENVALUES NOT PAIRED. Dimension of reduced matrix =  208
        95      1.28048391D+01     -1.28304740D+01

 **WARNING**  EIGENVALUES NOT PAIRED. Dimension of reduced matrix =  208
        96      1.28048391D+01     -1.28304740D+01

 **WARNING**  EIGENVALUES NOT PAIRED. Dimension of reduced matrix =  208
        97      1.28304740D+01     -1.30651252D+01

 **WARNING**  EIGENVALUES NOT PAIRED. Dimension of reduced matrix =  208
        98      1.28304740D+01     -1.33384237D+01

 **WARNING**  EIGENVALUES NOT PAIRED. Dimension of reduced matrix =  208
        99      1.30651252D+01     -1.33384237D+01

 **WARNING**  EIGENVALUES NOT PAIRED. Dimension of reduced matrix =  208
       100      1.33384237D+01     -1.35252500D+01

 **WARNING**  EIGENVALUES NOT PAIRED. Dimension of reduced matrix =  208
       101      1.33384237D+01     -1.35252500D+01

 **WARNING**  EIGENVALUES NOT PAIRED. Dimension of reduced matrix =  208
       102      1.35252500D+01     -1.35626719D+01

 **WARNING**  EIGENVALUES NOT PAIRED. Dimension of reduced matrix =  208
       103      1.35252500D+01     -1.00000000D+07

 **WARNING**  EIGENVALUES NOT PAIRED. Dimension of reduced matrix =  208
       104      1.35626719D+01     -1.00000000D+07

      Root  Residual tot.,    conf., and orb.    Bnorm      Eigenvalue
      ----------------------------------------------------------------
         1    7.63621D-15  7.64D-15  0.00D+00  1.00D+00    3.34945D-01
         2    7.46740D-16  7.47D-16  0.00D+00  1.00D+00    3.37855D-01
         3    1.26343D-14  1.26D-14  0.00D+00  1.00D+00    6.11131D-01
         4    1.29771D-14  1.30D-14  0.00D+00  1.00D+00    6.11131D-01
         5    1.31328D-14  1.31D-14  0.00D+00  1.00D+00    6.14877D-01
         6    1.19418D-14  1.19D-14  0.00D+00  1.00D+00    6.14877D-01
         7    3.75215D-15  3.75D-15  0.00D+00  1.00D+00    7.59160D-01
         8    7.90355D-15  7.90D-15  0.00D+00  1.00D+00    7.83199D-01
         9    1.16388D-14  1.16D-14  0.00D+00  1.00D+00    1.14574D+00
        10    1.53651D-14  1.54D-14  0.00D+00  1.00D+00    1.14574D+00
        11    7.16533D-15  7.17D-15  0.00D+00  1.00D+00    1.16483D+00
        12    8.37890D-15  8.38D-15  0.00D+00  1.00D+00    1.34473D+00
        13    1.66308D-14  1.66D-14  0.00D+00  1.00D+00    1.34473D+00
        14    6.87144D-15  6.87D-15  0.00D+00  1.00D+00    1.47430D+00
        15    4.51319D-14  4.51D-14  0.00D+00  1.00D+00    4.40295D+00
        16    5.03966D-15  5.04D-15  0.00D+00  1.00D+00    4.47473D+00
        17    1.81348D-14  1.81D-14  0.00D+00  1.00D+00    4.81814D+00
        18    2.52536D-14  2.53D-14  0.00D+00  1.00D+00    4.81814D+00
        19    1.68768D-14  1.69D-14  0.00D+00  1.00D+00    4.86805D+00
        20    2.30828D-14  2.31D-14  0.00D+00  1.00D+00    4.86805D+00
        21    1.25074D-14  1.25D-14  0.00D+00  1.00D+00    5.00759D+00
        22    1.70518D-14  1.71D-14  0.00D+00  1.00D+00    5.06385D+00
        23    1.73237D-14  1.73D-14  0.00D+00  1.00D+00    5.15586D+00
        24    2.43705D-14  2.44D-14  0.00D+00  1.00D+00    5.15586D+00
        25    1.78955D-14  1.79D-14  0.00D+00  1.00D+00    5.16295D+00
        26    2.37222D-14  2.37D-14  0.00D+00  1.00D+00    5.16295D+00
        27    1.99151D-14  1.99D-14  0.00D+00  1.00D+00    5.34578D+00
        28    1.95904D-14  1.96D-14  0.00D+00  1.00D+00    5.35100D+00
        29    1.75641D-14  1.76D-14  0.00D+00  1.00D+00    5.51713D+00
        30    2.04513D-14  2.05D-14  0.00D+00  1.00D+00    5.52499D+00
        31    3.16989D-14  3.17D-14  0.00D+00  1.00D+00    5.52499D+00
        32    1.70618D-14  1.71D-14  0.00D+00  1.00D+00    5.53371D+00
        33    1.78471D-14  1.78D-14  0.00D+00  1.00D+00    5.54766D+00
        34    1.87532D-14  1.88D-14  0.00D+00  1.00D+00    5.54786D+00
        35    4.00992D-14  4.01D-14  0.00D+00  1.00D+00    5.54786D+00
        36    2.40161D-14  2.40D-14  0.00D+00  1.00D+00    5.57275D+00
        37    2.04136D-14  2.04D-14  0.00D+00  1.00D+00    5.69556D+00
        38    2.76004D-14  2.76D-14  0.00D+00  1.00D+00    5.69556D+00
        39    1.87074D-14  1.87D-14  0.00D+00  1.00D+00    5.72145D+00
        40    2.59160D-14  2.59D-14  0.00D+00  1.00D+00    5.72145D+00
        41    2.44024D-14  2.44D-14  0.00D+00  1.00D+00    5.76467D+00
        42    3.67843D-14  3.68D-14  0.00D+00  1.00D+00    5.76467D+00
        43    1.75492D-14  1.75D-14  0.00D+00  1.00D+00    5.78835D+00
        44    2.95798D-14  2.96D-14  0.00D+00  1.00D+00    5.78835D+00
        45    2.54310D-14  2.54D-14  0.00D+00  1.00D+00    5.93681D+00
        46    2.45346D-14  2.45D-14  0.00D+00  1.00D+00    5.95548D+00
        47    2.30551D-14  2.31D-14  0.00D+00  1.00D+00    6.16507D+00
        48    2.61116D-14  2.61D-14  0.00D+00  1.00D+00    6.16507D+00
        49    2.46463D-14  2.46D-14  0.00D+00  1.00D+00    6.34290D+00
        50    2.33228D-14  2.33D-14  0.00D+00  1.00D+00    6.34290D+00
        51    2.66893D-14  2.67D-14  0.00D+00  1.00D+00    6.37438D+00
        52    3.29831D-14  3.30D-14  0.00D+00  1.00D+00    6.41182D+00
        53    2.21176D-14  2.21D-14  0.00D+00  1.00D+00    6.55885D+00
        54    3.37175D-14  3.37D-14  0.00D+00  1.00D+00    6.55885D+00
        55    3.19013D-14  3.19D-14  0.00D+00  1.00D+00    1.04760D+01
        56    3.37667D-14  3.38D-14  0.00D+00  1.00D+00    1.09850D+01
        57    4.21757D-14  4.22D-14  0.00D+00  1.00D+00    1.09850D+01
        58    3.25290D-14  3.25D-14  0.00D+00  1.00D+00    1.10847D+01
        59    4.93252D-14  4.93D-14  0.00D+00  1.00D+00    1.10847D+01
        60    2.82930D-14  2.83D-14  0.00D+00  1.00D+00    1.12396D+01
        61    2.43870D-14  2.44D-14  0.00D+00  1.00D+00    1.12957D+01
        62    3.77012D-14  3.77D-14  0.00D+00  1.00D+00    1.15135D+01
        63    6.31631D-14  6.32D-14  0.00D+00  1.00D+00    1.15135D+01
        64    2.70002D-14  2.70D-14  0.00D+00  1.00D+00    1.15378D+01
        65    6.08328D-14  6.08D-14  0.00D+00  1.00D+00    1.15567D+01
        66    3.62844D-14  3.63D-14  0.00D+00  1.00D+00    1.17847D+01
        67    3.45196D-14  3.45D-14  0.00D+00  1.00D+00    1.17847D+01
        68    2.67580D-14  2.68D-14  0.00D+00  1.00D+00    1.17934D+01
        69    3.23586D-14  3.24D-14  0.00D+00  1.00D+00    1.17934D+01
        70    1.58327D-14  1.58D-14  0.00D+00  1.00D+00    1.18561D+01
        71    2.62954D-14  2.63D-14  0.00D+00  1.00D+00    1.18561D+01
        72    3.57452D-14  3.57D-14  0.00D+00  1.00D+00    1.18684D+01
        73    5.07713D-14  5.08D-14  0.00D+00  1.00D+00    1.18684D+01
        74    3.14491D-14  3.14D-14  0.00D+00  1.00D+00    1.18773D+01
        75    5.96020D-14  5.96D-14  0.00D+00  1.00D+00    1.18904D+01
        76    4.99823D-14  5.00D-14  0.00D+00  1.00D+00    1.20060D+01
        77    3.15845D-14  3.16D-14  0.00D+00  1.00D+00    1.21358D+01
        78    5.31559D-14  5.32D-14  0.00D+00  1.00D+00    1.21358D+01
        79    2.66648D-14  2.67D-14  0.00D+00  1.00D+00    1.21461D+01
        80    2.57375D-14  2.57D-14  0.00D+00  1.00D+00    1.21461D+01
        81    2.96750D-14  2.97D-14  0.00D+00  1.00D+00    1.23189D+01
        82    3.79681D-14  3.80D-14  0.00D+00  1.00D+00    1.23189D+01
        83    3.71273D-14  3.71D-14  0.00D+00  1.00D+00    1.23473D+01
        84    2.76722D-14  2.77D-14  0.00D+00  1.00D+00    1.23519D+01
        85    2.83627D-14  2.84D-14  0.00D+00  1.00D+00    1.23519D+01
        86    6.42869D-14  6.43D-14  0.00D+00  1.00D+00    1.23562D+01
        87    3.53018D-14  3.53D-14  0.00D+00  1.00D+00    1.25414D+01
        88    5.87619D-14  5.88D-14  0.00D+00  1.00D+00    1.25414D+01
        89    2.30707D-14  2.31D-14  0.00D+00  1.00D+00    1.25739D+01
        90    3.32712D-14  3.33D-14  0.00D+00  1.00D+00    1.25923D+01
        91    3.97351D-14  3.97D-14  0.00D+00  1.00D+00    1.25923D+01
        92    6.83928D-14  6.84D-14  0.00D+00  1.00D+00    1.26083D+01
        93    4.45363D-14  4.45D-14  0.00D+00  1.00D+00    1.26279D+01
        94    3.61084D-14  3.61D-14  0.00D+00  1.00D+00    1.26309D+01
        95    3.11403D-14  3.11D-14  0.00D+00  1.00D+00    1.28048D+01
        96    4.70200D-14  4.70D-14  0.00D+00  1.00D+00    1.28048D+01
        97    4.09107D-14  4.09D-14  0.00D+00  1.00D+00    1.28305D+01
        98    5.34023D-14  5.34D-14  0.00D+00  1.00D+00    1.28305D+01
        99    2.83459D-14  2.83D-14  0.00D+00  1.00D+00    1.30651D+01
       100    4.57069D-14  4.57D-14  0.00D+00  1.00D+00    1.33384D+01
       101    7.88803D-14  7.89D-14  0.00D+00  1.00D+00    1.33384D+01
       102    4.49637D-14  4.50D-14  0.00D+00  1.00D+00    1.35252D+01
       103    7.20820D-14  7.21D-14  0.00D+00  1.00D+00    1.35252D+01
       104    2.78527D-14  2.79D-14  0.00D+00  1.00D+00    1.35627D+01
       105    8.04023D-15  8.04D-15  0.00D+00  1.00D+00   -3.34945D-01

 *** THE REQUESTED  104 SOLUTION VECTORS CONVERGED

 Convergence of RSP solution vectors, threshold = 1.00D-03
 ---------------------------------------------------------------
 (dimension of paired reduced space:  208)
 RSP solution vector no.    1; norm of residual   7.64D-15
 RSP solution vector no.    2; norm of residual   7.47D-16
 RSP solution vector no.    3; norm of residual   1.26D-14
 RSP solution vector no.    4; norm of residual   1.30D-14
 RSP solution vector no.    5; norm of residual   1.31D-14
 RSP solution vector no.    6; norm of residual   1.19D-14
 RSP solution vector no.    7; norm of residual   3.75D-15
 RSP solution vector no.    8; norm of residual   7.90D-15
 RSP solution vector no.    9; norm of residual   1.16D-14
 RSP solution vector no.   10; norm of residual   1.54D-14
 RSP solution vector no.   11; norm of residual   7.17D-15
 RSP solution vector no.   12; norm of residual   8.38D-15
 RSP solution vector no.   13; norm of residual   1.66D-14
 RSP solution vector no.   14; norm of residual   6.87D-15
 RSP solution vector no.   15; norm of residual   4.51D-14
 RSP solution vector no.   16; norm of residual   5.04D-15
 RSP solution vector no.   17; norm of residual   1.81D-14
 RSP solution vector no.   18; norm of residual   2.53D-14
 RSP solution vector no.   19; norm of residual   1.69D-14
 RSP solution vector no.   20; norm of residual   2.31D-14
 RSP solution vector no.   21; norm of residual   1.25D-14
 RSP solution vector no.   22; norm of residual   1.71D-14
 RSP solution vector no.   23; norm of residual   1.73D-14
 RSP solution vector no.   24; norm of residual   2.44D-14
 RSP solution vector no.   25; norm of residual   1.79D-14
 RSP solution vector no.   26; norm of residual   2.37D-14
 RSP solution vector no.   27; norm of residual   1.99D-14
 RSP solution vector no.   28; norm of residual   1.96D-14
 RSP solution vector no.   29; norm of residual   1.76D-14
 RSP solution vector no.   30; norm of residual   2.05D-14
 RSP solution vector no.   31; norm of residual   3.17D-14
 RSP solution vector no.   32; norm of residual   1.71D-14
 RSP solution vector no.   33; norm of residual   1.78D-14
 RSP solution vector no.   34; norm of residual   1.88D-14
 RSP solution vector no.   35; norm of residual   4.01D-14
 RSP solution vector no.   36; norm of residual   2.40D-14
 RSP solution vector no.   37; norm of residual   2.04D-14
 RSP solution vector no.   38; norm of residual   2.76D-14
 RSP solution vector no.   39; norm of residual   1.87D-14
 RSP solution vector no.   40; norm of residual   2.59D-14
 RSP solution vector no.   41; norm of residual   2.44D-14
 RSP solution vector no.   42; norm of residual   3.68D-14
 RSP solution vector no.   43; norm of residual   1.75D-14
 RSP solution vector no.   44; norm of residual   2.96D-14
 RSP solution vector no.   45; norm of residual   2.54D-14
 RSP solution vector no.   46; norm of residual   2.45D-14
 RSP solution vector no.   47; norm of residual   2.31D-14
 RSP solution vector no.   48; norm of residual   2.61D-14
 RSP solution vector no.   49; norm of residual   2.46D-14
 RSP solution vector no.   50; norm of residual   2.33D-14
 RSP solution vector no.   51; norm of residual   2.67D-14
 RSP solution vector no.   52; norm of residual   3.30D-14
 RSP solution vector no.   53; norm of residual   2.21D-14
 RSP solution vector no.   54; norm of residual   3.37D-14
 RSP solution vector no.   55; norm of residual   3.19D-14
 RSP solution vector no.   56; norm of residual   3.38D-14
 RSP solution vector no.   57; norm of residual   4.22D-14
 RSP solution vector no.   58; norm of residual   3.25D-14
 RSP solution vector no.   59; norm of residual   4.93D-14
 RSP solution vector no.   60; norm of residual   2.83D-14
 RSP solution vector no.   61; norm of residual   2.44D-14
 RSP solution vector no.   62; norm of residual   3.77D-14
 RSP solution vector no.   63; norm of residual   6.32D-14
 RSP solution vector no.   64; norm of residual   2.70D-14
 RSP solution vector no.   65; norm of residual   6.08D-14
 RSP solution vector no.   66; norm of residual   3.63D-14
 RSP solution vector no.   67; norm of residual   3.45D-14
 RSP solution vector no.   68; norm of residual   2.68D-14
 RSP solution vector no.   69; norm of residual   3.24D-14
 RSP solution vector no.   70; norm of residual   1.58D-14
 RSP solution vector no.   71; norm of residual   2.63D-14
 RSP solution vector no.   72; norm of residual   3.57D-14
 RSP solution vector no.   73; norm of residual   5.08D-14
 RSP solution vector no.   74; norm of residual   3.14D-14
 RSP solution vector no.   75; norm of residual   5.96D-14
 RSP solution vector no.   76; norm of residual   5.00D-14
 RSP solution vector no.   77; norm of residual   3.16D-14
 RSP solution vector no.   78; norm of residual   5.32D-14
 RSP solution vector no.   79; norm of residual   2.67D-14
 RSP solution vector no.   80; norm of residual   2.57D-14
 RSP solution vector no.   81; norm of residual   2.97D-14
 RSP solution vector no.   82; norm of residual   3.80D-14
 RSP solution vector no.   83; norm of residual   3.71D-14
 RSP solution vector no.   84; norm of residual   2.77D-14
 RSP solution vector no.   85; norm of residual   2.84D-14
 RSP solution vector no.   86; norm of residual   6.43D-14
 RSP solution vector no.   87; norm of residual   3.53D-14
 RSP solution vector no.   88; norm of residual   5.88D-14
 RSP solution vector no.   89; norm of residual   2.31D-14
 RSP solution vector no.   90; norm of residual   3.33D-14
 RSP solution vector no.   91; norm of residual   3.97D-14
 RSP solution vector no.   92; norm of residual   6.84D-14
 RSP solution vector no.   93; norm of residual   4.45D-14
 RSP solution vector no.   94; norm of residual   3.61D-14
 RSP solution vector no.   95; norm of residual   3.11D-14
 RSP solution vector no.   96; norm of residual   4.70D-14
 RSP solution vector no.   97; norm of residual   4.09D-14
 RSP solution vector no.   98; norm of residual   5.34D-14
 RSP solution vector no.   99; norm of residual   2.83D-14
 RSP solution vector no.  100; norm of residual   4.57D-14
 RSP solution vector no.  101; norm of residual   7.89D-14
 RSP solution vector no.  102; norm of residual   4.50D-14
 RSP solution vector no.  103; norm of residual   7.21D-14
 RSP solution vector no.  104; norm of residual   2.79D-14

 *** RSPCTL MICROITERATIONS CONVERGED

@ Singlet transition operator label: XDIPLEN 
@ STATE NO:    1 *TRANSITION MOMENT: -0.39519089     *ENERGY(eV):   9.1143213    
@ STATE NO:    2 *TRANSITION MOMENT:  3.79020986E-14 *ENERGY(eV):   9.1934900    
@ STATE NO:    3 *TRANSITION MOMENT: -1.44639762E-16 *ENERGY(eV):   16.629708    
@ STATE NO:    4 *TRANSITION MOMENT:  5.97081605E-16 *ENERGY(eV):   16.629708    
@ STATE NO:    5 *TRANSITION MOMENT: -8.60210145E-16 *ENERGY(eV):   16.731642    
@ STATE NO:    6 *TRANSITION MOMENT:  1.11168592E-15 *ENERGY(eV):   16.731642    
@ STATE NO:    7 *TRANSITION MOMENT:  7.92850663E-14 *ENERGY(eV):   20.657794    
@ STATE NO:    8 *TRANSITION MOMENT:  0.28258361     *ENERGY(eV):   21.311917    
@ STATE NO:    9 *TRANSITION MOMENT:  2.48920944E-17 *ENERGY(eV):   31.177070    
@ STATE NO:   10 *TRANSITION MOMENT:  5.72002359E-16 *ENERGY(eV):   31.177070    
@ STATE NO:   11 *TRANSITION MOMENT: -5.86814668E-16 *ENERGY(eV):   31.696669    
@ STATE NO:   12 *TRANSITION MOMENT: -5.36435496E-17 *ENERGY(eV):   36.591960    
@ STATE NO:   13 *TRANSITION MOMENT: -6.71833890E-17 *ENERGY(eV):   36.591960    
@ STATE NO:   14 *TRANSITION MOMENT:  3.10157105E-16 *ENERGY(eV):   40.117714    
@ STATE NO:   15 *TRANSITION MOMENT: -9.01940040E-02 *ENERGY(eV):   119.81026    

@ Singlet transition operator label: YDIPLEN 
@ STATE NO:    1 *TRANSITION MOMENT:  1.03565676E-17 *ENERGY(eV):   9.1143213    
@ STATE NO:    2 *TRANSITION MOMENT:  1.84794142E-16 *ENERGY(eV):   9.1934900    
@ STATE NO:    3 *TRANSITION MOMENT:  0.17214072     *ENERGY(eV):   16.629708    
@ STATE NO:    4 *TRANSITION MOMENT:  0.13856829     *ENERGY(eV):   16.629708    
@ STATE NO:    5 *TRANSITION MOMENT:  6.73358534E-13 *ENERGY(eV):   16.731642    
@ STATE NO:    6 *TRANSITION MOMENT:  6.03297174E-13 *ENERGY(eV):   16.731642    
@ STATE NO:    7 *TRANSITION MOMENT:  3.64532021E-16 *ENERGY(eV):   20.657794    
@ STATE NO:    8 *TRANSITION MOMENT: -1.63616044E-15 *ENERGY(eV):   21.311917    
@ STATE NO:    9 *TRANSITION MOMENT:  2.04603962E-16 *ENERGY(eV):   31.177070    
@ STATE NO:   10 *TRANSITION MOMENT: -2.10438087E-15 *ENERGY(eV):   31.177070    
@ STATE NO:   11 *TRANSITION MOMENT: -3.66968020E-16 *ENERGY(eV):   31.696669    
@ STATE NO:   12 *TRANSITION MOMENT:  6.95510051E-03 *ENERGY(eV):   36.591960    
@ STATE NO:   13 *TRANSITION MOMENT: -5.74600873E-04 *ENERGY(eV):   36.591960    
@ STATE NO:   14 *TRANSITION MOMENT:  1.75554224E-16 *ENERGY(eV):   40.117714    
@ STATE NO:   15 *TRANSITION MOMENT:  4.02747847E-17 *ENERGY(eV):   119.81026    

@ Singlet transition operator label: ZDIPLEN 
@ STATE NO:    1 *TRANSITION MOMENT: -9.82499388E-19 *ENERGY(eV):   9.1143213    
@ STATE NO:    2 *TRANSITION MOMENT: -3.32321657E-18 *ENERGY(eV):   9.1934900    
@ STATE NO:    3 *TRANSITION MOMENT:  0.83314313     *ENERGY(eV):   16.629708    
@ STATE NO:    4 *TRANSITION MOMENT: -0.83937997     *ENERGY(eV):   16.629708    
@ STATE NO:    5 *TRANSITION MOMENT:  6.24067356E-14 *ENERGY(eV):   16.731642    
@ STATE NO:    6 *TRANSITION MOMENT:  6.06353081E-13 *ENERGY(eV):   16.731642    
@ STATE NO:    7 *TRANSITION MOMENT: -7.67499509E-17 *ENERGY(eV):   20.657794    
@ STATE NO:    8 *TRANSITION MOMENT:  4.69165487E-16 *ENERGY(eV):   21.311917    
@ STATE NO:    9 *TRANSITION MOMENT:  6.62952151E-16 *ENERGY(eV):   31.177070    
@ STATE NO:   10 *TRANSITION MOMENT: -1.69138892E-14 *ENERGY(eV):   31.177070    
@ STATE NO:   11 *TRANSITION MOMENT:  5.19009266E-17 *ENERGY(eV):   31.696669    
@ STATE NO:   12 *TRANSITION MOMENT: -2.66574600E-04 *ENERGY(eV):   36.591960    
@ STATE NO:   13 *TRANSITION MOMENT: -6.93644859E-03 *ENERGY(eV):   36.591960    
@ STATE NO:   14 *TRANSITION MOMENT: -1.73141999E-17 *ENERGY(eV):   40.117714    
@ STATE NO:   15 *TRANSITION MOMENT:  1.02946645E-16 *ENERGY(eV):   119.81026    


 **************************************************************************************
 *** @ Excit. operator sym 1 & ref. state sym 1 => excited state symmetry 1  ( A  ) ***
 **************************************************************************************



 @ Excited state no:    1 in symmetry 1  ( A  ) - singlet excitation
 -------------------------------------------------------------------

@ Excitation energy :  0.33494515     au
@                       9.1143213     eV;   73511.964     cm-1;   879.39837     kJ / mol

@ Total energy :       -14.272160     au

@ Operator label: XDIPLEN ; Transition moment : -0.39519089     au
@ Oscillator strength (LENGTH)   :  3.48735598E-02  (X-polarization)

@ Operator label: YDIPLEN ; Transition moment :  1.03565676E-17 au
@ Oscillator strength (LENGTH)   :  2.39504751E-35  (Y-polarization)

@ Operator label: ZDIPLEN ; Transition moment : -9.82499388E-19 au
@ Oscillator strength (LENGTH)   :  2.15549499E-37  (Z-polarization)
@ Total oscillator strength (LENGTH)   :  3.48735598E-02

 Eigenvector for state no.  1

      Index(conf)                         Z operator          Y operator
      ----------                      --------------      --------------
          16                            0.9974195750        0.0000000000

      104 elements with absolute value ≤ 1.00D-01 are not printed.

 Printout of coefficients in interval  3.1623E-01 to  1.0000E+00
 ===============================================================

  Coefficient of CSF no.        16 is      0.99741957    9.97419575E-01
  Orbital          1   2   3
  Spin coupling    2   1  -1

 Printout of coefficients in interval  1.0000E-01 to  3.1623E-01
 ===============================================================
   ( no coefficients )

 Norm of printed CI vector ..      0.99484581

 Magnitude of CI coefficients
 ============================
 ( Ranges are relative to norm of vector :  1.00E+00 )

  10- 1 to 10- 0         1    0.99484581E+00      0.9948458085
  10- 2 to 10- 1         1    0.51436823E-02      0.9999894909
  10- 3 to 10- 2         1    0.85856664E-05      0.9999980765
  10- 4 to 10- 3         6    0.19179882E-05      0.9999999945
  10- 5 to 10- 4         4    0.54575934E-08      1.0000000000
  10- 6 to 10- 5         1    0.33020283E-10      1.0000000000
  Number of coefficients less than 10^-11 times norm is           91


 @ Excited state no:    2 in symmetry 1  ( A  ) - singlet excitation
 -------------------------------------------------------------------

@ Excitation energy :  0.33785455     au
@                       9.1934900     eV;   74150.502     cm-1;   887.03698     kJ / mol

@ Total energy :       -14.269250     au

@ Operator label: XDIPLEN ; Transition moment :  3.79020986E-14 au
@ Oscillator strength (LENGTH)   :  3.23567600E-28  (X-polarization)

@ Operator label: YDIPLEN ; Transition moment :  1.84794142E-16 au
@ Oscillator strength (LENGTH)   :  7.69156850E-33  (Y-polarization)

@ Operator label: ZDIPLEN ; Transition moment : -3.32321657E-18 au
@ Oscillator strength (LENGTH)   :  2.48745827E-36  (Z-polarization)
@ Total oscillator strength (LENGTH)   :  3.23575294E-28

 Eigenvector for state no.  2

      Index(conf)                         Z operator          Y operator
      ----------                      --------------      --------------
           1                            0.6585675605        0.0000000000
           2                            0.7462153279        0.0000000000

      103 elements with absolute value ≤ 1.00D-01 are not printed.

 Printout of coefficients in interval  3.1623E-01 to  1.0000E+00
 ===============================================================

  Coefficient of CSF no.         1 is      0.65856756    6.58567560E-01
  Orbital          1   2
  Spin coupling    2   2

  Coefficient of CSF no.         2 is      0.74621533    7.46215328E-01
  Orbital          1   3
  Spin coupling    2   2

 Printout of coefficients in interval  1.0000E-01 to  3.1623E-01
 ===============================================================
   ( no coefficients )

 Norm of printed CI vector ..      0.99054855

 Magnitude of CI coefficients
 ============================
 ( Ranges are relative to norm of vector :  1.00E+00 )

  10- 1 to 10- 0         2    0.99054855E+00      0.9905485473
  10- 2 to 10- 1         4    0.94422578E-02      0.9999908051
  10- 3 to 10- 2         2    0.75562036E-05      0.9999983613
  10- 4 to 10- 3         7    0.16167612E-05      0.9999999780
  10- 5 to 10- 4         5    0.21571004E-07      0.9999999996
  10- 6 to 10- 5         7    0.37980021E-09      1.0000000000
  Number of coefficients less than 10^-11 times norm is           78


 @ Excited state no:    3 in symmetry 1  ( A  ) - singlet excitation
 -------------------------------------------------------------------

@ Excitation energy :  0.61113053     au
@                       16.629708     eV;   134127.65     cm-1;   1604.5230     kJ / mol

@ Total energy :       -13.995974     au

@ Operator label: XDIPLEN ; Transition moment : -1.44639762E-16 au
@ Oscillator strength (LENGTH)   :  8.52350301E-33  (X-polarization)

@ Operator label: YDIPLEN ; Transition moment :  0.17214072     au
@ Oscillator strength (LENGTH)   :  1.20728542E-02  (Y-polarization)

@ Operator label: ZDIPLEN ; Transition moment :  0.83314313     au
@ Oscillator strength (LENGTH)   :  0.28280166      (Z-polarization)
@ Total oscillator strength (LENGTH)   :  0.29487452    

 Eigenvector for state no.  3

      Index(conf)                         Z operator          Y operator
      ----------                      --------------      --------------
          17                            0.9828543234        0.0000000000
          19                           -0.1119645498        0.0000000000
          24                           -0.1455119532        0.0000000000

      102 elements with absolute value ≤ 1.00D-01 are not printed.

 Printout of coefficients in interval  3.1623E-01 to  1.0000E+00
 ===============================================================

  Coefficient of CSF no.        17 is      0.98285432    9.82854323E-01
  Orbital          1   2   4
  Spin coupling    2   1  -1

 Printout of coefficients in interval  1.0000E-01 to  3.1623E-01
 ===============================================================

  Coefficient of CSF no.        19 is     -0.11196455   -1.11964550E-01
  Orbital          1   2   5
  Spin coupling    2   1  -1

  Coefficient of CSF no.        24 is     -0.14551195   -1.45511953E-01
  Orbital          1   4   6
  Spin coupling    2   1  -1

 Norm of printed CI vector ..      0.99971241

 Magnitude of CI coefficients
 ============================
 ( Ranges are relative to norm of vector :  1.00E+00 )

  10- 1 to 10- 0         3    0.99971241E+00      0.9997124099
  10- 2 to 10- 1         1    0.27477683E-03      0.9999871867
  10- 3 to 10- 2         2    0.10532191E-04      0.9999977189
[...]


 @ Excited state no:   97 in symmetry 1  ( A  ) - singlet excitation
 -------------------------------------------------------------------

@ Excitation energy :   12.830474     au
@                       349.13496     eV;   2815963.5     cm-1;   33686.404     kJ / mol

@ Total energy :       -1.7766309     au

@ Operator label: XDIPLEN ; Transition moment :  2.22709414E-18 au
@ Oscillator strength (LENGTH)   :  4.24256586E-35  (X-polarization)

@ Operator label: YDIPLEN ; Transition moment :  2.40249942E-17 au
@ Oscillator strength (LENGTH)   :  4.93716937E-33  (Y-polarization)

@ Operator label: ZDIPLEN ; Transition moment : -1.05889211E-17 au
@ Oscillator strength (LENGTH)   :  9.59080070E-34  (Z-polarization)
@ Total oscillator strength (LENGTH)   :  5.93867510E-33

 Eigenvector for state no. 97

      Index(conf)                         Z operator          Y operator
      ----------                      --------------      --------------
          71                            0.2724785288        0.0000000000
          74                            0.9461486808        0.0000000000
          98                            0.1298963177        0.0000000000

      102 elements with absolute value ≤ 1.00D-01 are not printed.

 Printout of coefficients in interval  3.1623E-01 to  1.0000E+00
 ===============================================================

  Coefficient of CSF no.        74 is      0.94614868    9.46148681E-01
  Orbital          6   3   5
  Spin coupling    2   1  -1

 Printout of coefficients in interval  1.0000E-01 to  3.1623E-01
 ===============================================================

  Coefficient of CSF no.        71 is      0.27247853    2.72478529E-01
  Orbital          6   3   4
  Spin coupling    2   1  -1

  Coefficient of CSF no.        98 is      0.12989632    1.29896318E-01
  Orbital          2   3   5   6
  Spin coupling    1   1  -1  -1

 Printout of coefficients in interval  1.0000E-01 to  1.0000E-01
 ===============================================================
   ( no coefficients )

 Norm of printed CI vector ..      0.98631493

 Magnitude of CI coefficients
 ============================
 ( Ranges are relative to norm of vector :  1.00E+00 )

  10- 1 to 10- 0         3    0.98631493E+00      0.9863149282
  10- 2 to 10- 1         5    0.13576716E-01      0.9998916446
  10- 3 to 10- 2         5    0.10799535E-03      0.9999996400
  10- 4 to 10- 3         4    0.35551226E-06      0.9999999955
  10- 5 to 10- 4         3    0.45088824E-08      1.0000000000
  Number of coefficients less than 10^-11 times norm is           85


 @ Excited state no:   98 in symmetry 1  ( A  ) - singlet excitation
 -------------------------------------------------------------------

@ Excitation energy :   12.830474     au
@                       349.13496     eV;   2815963.5     cm-1;   33686.404     kJ / mol

@ Total energy :       -1.7766309     au

@ Operator label: XDIPLEN ; Transition moment :  7.71610945E-18 au
@ Oscillator strength (LENGTH)   :  5.09270126E-34  (X-polarization)

@ Operator label: YDIPLEN ; Transition moment :  5.28310820E-17 au
@ Oscillator strength (LENGTH)   :  2.38742893E-32  (Y-polarization)

@ Operator label: ZDIPLEN ; Transition moment : -1.16055615E-17 au
@ Oscillator strength (LENGTH)   :  1.15208298E-33  (Z-polarization)
@ Total oscillator strength (LENGTH)   :  2.55356424E-32

 Eigenvector for state no. 98

      Index(conf)                         Z operator          Y operator
      ----------                      --------------      --------------
          71                            0.9672193554        0.0000000000
          74                           -0.1841971591        0.0000000000
          92                            0.1327891009        0.0000000000

      102 elements with absolute value ≤ 1.00D-01 are not printed.

 Printout of coefficients in interval  3.1623E-01 to  1.0000E+00
 ===============================================================

  Coefficient of CSF no.        71 is      0.96721936    9.67219355E-01
  Orbital          6   3   4
  Spin coupling    2   1  -1

 Printout of coefficients in interval  1.0000E-01 to  3.1623E-01
 ===============================================================

  Coefficient of CSF no.        74 is     -0.18419716   -1.84197159E-01
  Orbital          6   3   5
  Spin coupling    2   1  -1

  Coefficient of CSF no.        92 is      0.13278910    1.32789101E-01
  Orbital          2   3   4   6
  Spin coupling    1   1  -1  -1

 Norm of printed CI vector ..      0.98707482

 Magnitude of CI coefficients
 ============================
 ( Ranges are relative to norm of vector :  1.00E+00 )

  10- 1 to 10- 0         3    0.98707482E+00      0.9870748202
  10- 2 to 10- 1         5    0.12816824E-01      0.9998916446
  10- 3 to 10- 2         5    0.10808850E-03      0.9999997331
  10- 4 to 10- 3         3    0.25711225E-06      0.9999999902
  10- 5 to 10- 4         4    0.97542198E-08      1.0000000000
  Number of coefficients less than 10^-11 times norm is           85


 @ Excited state no:   99 in symmetry 1  ( A  ) - singlet excitation
 -------------------------------------------------------------------

@ Excitation energy :   13.065125     au
@                       355.52014     eV;   2867463.5     cm-1;   34302.481     kJ / mol

@ Total energy :       -1.5419797     au

@ Operator label: XDIPLEN ; Transition moment :  5.92843021E-18 au
@ Oscillator strength (LENGTH)   :  3.06127075E-34  (X-polarization)

@ Operator label: YDIPLEN ; Transition moment : -1.02919960E-16 au
@ Oscillator strength (LENGTH)   :  9.22617178E-32  (Y-polarization)

@ Operator label: ZDIPLEN ; Transition moment :  7.24869132E-17 au
@ Oscillator strength (LENGTH)   :  4.57658498E-32  (Z-polarization)
@ Total oscillator strength (LENGTH)   :  1.38333695E-31

 Eigenvector for state no. 99

      Index(conf)                         Z operator          Y operator
      ----------                      --------------      --------------
          10                           -0.9867713971        0.0000000000

      104 elements with absolute value ≤ 1.00D-01 are not printed.

 Printout of coefficients in interval  3.1623E-01 to  1.0000E+00
 ===============================================================

  Coefficient of CSF no.        10 is     -0.98677140   -9.86771397E-01
  Orbital          4   5
  Spin coupling    2   2

 Printout of coefficients in interval  1.0000E-01 to  3.1623E-01
 ===============================================================
   ( no coefficients )

 Norm of printed CI vector ..      0.97371779

 Magnitude of CI coefficients
 ============================
 ( Ranges are relative to norm of vector :  1.00E+00 )

  10- 1 to 10- 0         1    0.97371779E+00      0.9737177901
  10- 2 to 10- 1         6    0.26149156E-01      0.9998669456
  10- 3 to 10- 2         8    0.13265581E-03      0.9999996014
  10- 4 to 10- 3         5    0.39314010E-06      0.9999999946
  10- 5 to 10- 4         3    0.52737091E-08      0.9999999999
  10- 6 to 10- 5         4    0.14357284E-09      1.0000000000
  Number of coefficients less than 10^-11 times norm is           78


 @ Excited state no:  100 in symmetry 1  ( A  ) - singlet excitation
 -------------------------------------------------------------------

@ Excitation energy :   13.338424     au
@                       362.95697     eV;   2927445.6     cm-1;   35020.026     kJ / mol

@ Total energy :       -1.2686812     au

@ Operator label: XDIPLEN ; Transition moment : -5.40398879E-19 au
@ Oscillator strength (LENGTH)   :  2.59682168E-36  (X-polarization)

@ Operator label: YDIPLEN ; Transition moment : -2.51866878E-06 au
@ Oscillator strength (LENGTH)   :  5.64099051E-11  (Y-polarization)

@ Operator label: ZDIPLEN ; Transition moment : -4.04118029E-08 au
@ Oscillator strength (LENGTH)   :  1.45221094E-14  (Z-polarization)
@ Total oscillator strength (LENGTH)   :  5.64244272E-11

 Eigenvector for state no.100

      Index(conf)                         Z operator          Y operator
      ----------                      --------------      --------------
          50                            0.1065471767        0.0000000000
          55                            0.9876583084        0.0000000000
          65                           -0.1054489609        0.0000000000

      102 elements with absolute value ≤ 1.00D-01 are not printed.

 Printout of coefficients in interval  3.1623E-01 to  1.0000E+00
 ===============================================================

  Coefficient of CSF no.        55 is      0.98765831    9.87658308E-01
  Orbital          4   5   6
  Spin coupling    2   1  -1

 Printout of coefficients in interval  1.0000E-01 to  3.1623E-01
 ===============================================================

  Coefficient of CSF no.        50 is      0.10654718    1.06547177E-01
  Orbital          4   2   5
  Spin coupling    2   1  -1

  Coefficient of CSF no.        65 is     -0.10544896   -1.05448961E-01
  Orbital          5   4   6
  Spin coupling    2   1  -1

 Norm of printed CI vector ..      0.99794072

 Magnitude of CI coefficients
 ============================
 ( Ranges are relative to norm of vector :  1.00E+00 )

  10- 1 to 10- 0         3    0.99794072E+00      0.9979407184
  10- 2 to 10- 1         3    0.19560829E-02      0.9998968013
  10- 3 to 10- 2         6    0.10158090E-03      0.9999983822
  10- 4 to 10- 3         6    0.16075385E-05      0.9999999898
  10- 5 to 10- 4         6    0.10204514E-07      1.0000000000
  10- 6 to 10- 5         4    0.27058427E-10      1.0000000000
  Number of coefficients less than 10^-11 times norm is           77


 @ Excited state no:  101 in symmetry 1  ( A  ) - singlet excitation
 -------------------------------------------------------------------

@ Excitation energy :   13.338424     au
@                       362.95697     eV;   2927445.6     cm-1;   35020.026     kJ / mol

@ Total energy :       -1.2686812     au

@ Operator label: XDIPLEN ; Transition moment : -1.14209964E-17 au
@ Oscillator strength (LENGTH)   :  1.15990185E-33  (X-polarization)

@ Operator label: YDIPLEN ; Transition moment :  9.80785891E-09 au
@ Oscillator strength (LENGTH)   :  8.55385077E-16  (Y-polarization)

@ Operator label: ZDIPLEN ; Transition moment :  2.51897387E-06 au
@ Oscillator strength (LENGTH)   :  5.64235718E-11  (Z-polarization)
@ Total oscillator strength (LENGTH)   :  5.64244272E-11

 Eigenvector for state no.101

      Index(conf)                         Z operator          Y operator
      ----------                      --------------      --------------
          60                            0.1067527850        0.0000000000
          65                            0.9895642312        0.0000000000

      103 elements with absolute value ≤ 1.00D-01 are not printed.

 Printout of coefficients in interval  3.1623E-01 to  1.0000E+00
 ===============================================================

  Coefficient of CSF no.        65 is      0.98956423    9.89564231E-01
  Orbital          5   4   6
  Spin coupling    2   1  -1

 Printout of coefficients in interval  1.0000E-01 to  3.1623E-01
 ===============================================================

  Coefficient of CSF no.        60 is      0.10675278    1.06752785E-01
  Orbital          5   2   4
  Spin coupling    2   1  -1

 Norm of printed CI vector ..      0.99063352

 Magnitude of CI coefficients
 ============================
 ( Ranges are relative to norm of vector :  1.00E+00 )

  10- 1 to 10- 0         2    0.99063352E+00      0.9906335247
  10- 2 to 10- 1         3    0.91847835E-02      0.9998183082
  10- 3 to 10- 2         7    0.18038603E-03      0.9999986942
  10- 4 to 10- 3         6    0.12982064E-05      0.9999999924
  10- 5 to 10- 4         6    0.75598028E-08      1.0000000000
  10- 6 to 10- 5         4    0.17888227E-10      1.0000000000
  Number of coefficients less than 10^-11 times norm is           77


 @ Excited state no:  102 in symmetry 1  ( A  ) - singlet excitation
 -------------------------------------------------------------------

@ Excitation energy :   13.525250     au
@                       368.04077     eV;   2968449.2     cm-1;   35510.538     kJ / mol

@ Total energy :       -1.0818549     au

@ Operator label: XDIPLEN ; Transition moment : -5.73022717E-17 au
@ Oscillator strength (LENGTH)   :  2.96072261E-32  (X-polarization)

@ Operator label: YDIPLEN ; Transition moment : -1.22201970E-16 au
@ Oscillator strength (LENGTH)   :  1.34651272E-31  (Y-polarization)

@ Operator label: ZDIPLEN ; Transition moment : -1.96963404E-17 au
@ Oscillator strength (LENGTH)   :  3.49804285E-33  (Z-polarization)
@ Total oscillator strength (LENGTH)   :  1.67756541E-31

 Eigenvector for state no.102

      Index(conf)                         Z operator          Y operator
      ----------                      --------------      --------------
          14                           -0.6946216108        0.0000000000
          15                            0.6946216108        0.0000000000
          75                           -0.1496112494        0.0000000000

      102 elements with absolute value ≤ 1.00D-01 are not printed.

 Printout of coefficients in interval  3.1623E-01 to  1.0000E+00
 ===============================================================

  Coefficient of CSF no.        14 is     -0.69462161   -6.94621611E-01
  Orbital          4   6
  Spin coupling    2   2

  Coefficient of CSF no.        15 is      0.69462161    6.94621611E-01
  Orbital          5   6
  Spin coupling    2   2

 Printout of coefficients in interval  1.0000E-01 to  3.1623E-01
 ===============================================================

  Coefficient of CSF no.        75 is     -0.14961125   -1.49611249E-01
  Orbital          6   4   5
  Spin coupling    2   1  -1

 Printout of coefficients in interval  1.0000E-01 to  1.0000E-01
 ===============================================================
   ( no coefficients )

 Norm of printed CI vector ..      0.98738189

 Magnitude of CI coefficients
 ============================
 ( Ranges are relative to norm of vector :  1.00E+00 )

  10- 1 to 10- 0         3    0.98738189E+00      0.9873818903
  10- 2 to 10- 1         5    0.12393235E-01      0.9997751252
  10- 3 to 10- 2         7    0.22382932E-03      0.9999989545
  10- 4 to 10- 3         5    0.10414743E-05      0.9999999960
  10- 5 to 10- 4         2    0.38975310E-08      0.9999999999
  10- 6 to 10- 5         1    0.90404803E-10      1.0000000000
  Number of coefficients less than 10^-11 times norm is           82


 @ Excited state no:  103 in symmetry 1  ( A  ) - singlet excitation
 -------------------------------------------------------------------

@ Excitation energy :   13.525250     au
@                       368.04077     eV;   2968449.2     cm-1;   35510.538     kJ / mol

@ Total energy :       -1.0818549     au

@ Operator label: XDIPLEN ; Transition moment :  2.88948985E-18 au
@ Oscillator strength (LENGTH)   :  7.52829085E-35  (X-polarization)

@ Operator label: YDIPLEN ; Transition moment : -1.04869704E-17 au
@ Oscillator strength (LENGTH)   :  9.91640206E-34  (Y-polarization)

@ Operator label: ZDIPLEN ; Transition moment : -5.16990600E-18 au
@ Oscillator strength (LENGTH)   :  2.41001273E-34  (Z-polarization)
@ Total oscillator strength (LENGTH)   :  1.30792439E-33

 Eigenvector for state no.103

      Index(conf)                         Z operator          Y operator
      ----------                      --------------      --------------
          75                           -0.9872872583        0.0000000000

      104 elements with absolute value ≤ 1.00D-01 are not printed.

 Printout of coefficients in interval  3.1623E-01 to  1.0000E+00
 ===============================================================

  Coefficient of CSF no.        75 is     -0.98728726   -9.87287258E-01
  Orbital          6   4   5
  Spin coupling    2   1  -1

 Printout of coefficients in interval  1.0000E-01 to  3.1623E-01
 ===============================================================
   ( no coefficients )

 Norm of printed CI vector ..      0.97473613

 Magnitude of CI coefficients
 ============================
 ( Ranges are relative to norm of vector :  1.00E+00 )

  10- 1 to 10- 0         1    0.97473613E+00      0.9747361304
  10- 2 to 10- 1         6    0.25080721E-01      0.9998168514
  10- 3 to 10- 2         6    0.18067375E-03      0.9999975251
  10- 4 to 10- 3         5    0.24637175E-05      0.9999999888
  10- 5 to 10- 4         3    0.11102863E-07      0.9999999999
  10- 6 to 10- 5         2    0.51074948E-10      1.0000000000
  Number of coefficients less than 10^-11 times norm is           82


 @ Excited state no:  104 in symmetry 1  ( A  ) - singlet excitation
 -------------------------------------------------------------------

@ Excitation energy :   13.562672     au
@                       369.05908     eV;   2976662.4     cm-1;   35608.790     kJ / mol

@ Total energy :       -1.0444330     au

@ Operator label: XDIPLEN ; Transition moment :  1.03532781E-16 au
@ Oscillator strength (LENGTH)   :  9.69191862E-32  (X-polarization)

@ Operator label: YDIPLEN ; Transition moment : -1.05044394E-17 au
@ Oscillator strength (LENGTH)   :  9.97699509E-34  (Y-polarization)

@ Operator label: ZDIPLEN ; Transition moment : -7.59586624E-17 au
@ Oscillator strength (LENGTH)   :  5.21685317E-32  (Z-polarization)
@ Total oscillator strength (LENGTH)   :  1.50085417E-31

 Eigenvector for state no.104

      Index(conf)                         Z operator          Y operator
      ----------                      --------------      --------------
          10                           -0.1302303143        0.0000000000
          14                           -0.6959345009        0.0000000000
          15                           -0.6959345009        0.0000000000

      102 elements with absolute value ≤ 1.00D-01 are not printed.

 Printout of coefficients in interval  3.1623E-01 to  1.0000E+00
 ===============================================================

  Coefficient of CSF no.        14 is     -0.69593450   -6.95934501E-01
  Orbital          4   6
  Spin coupling    2   2

  Coefficient of CSF no.        15 is     -0.69593450   -6.95934501E-01
  Orbital          5   6
  Spin coupling    2   2

 Printout of coefficients in interval  1.0000E-01 to  3.1623E-01
 ===============================================================

  Coefficient of CSF no.        10 is     -0.13023031   -1.30230314E-01
  Orbital          4   5
  Spin coupling    2   2

 Norm of printed CI vector ..      0.98560959

 Magnitude of CI coefficients
 ============================
 ( Ranges are relative to norm of vector :  1.00E+00 )

  10- 1 to 10- 0         3    0.98560959E+00      0.9856095938
  10- 2 to 10- 1         6    0.14194373E-01      0.9998039665
  10- 3 to 10- 2         6    0.19457576E-03      0.9999985422
  10- 4 to 10- 3         5    0.14446100E-05      0.9999999868
  10- 5 to 10- 4         4    0.13047509E-07      0.9999999999
  10- 6 to 10- 5         3    0.12226604E-09      1.0000000000
  Number of coefficients less than 10^-11 times norm is           78


 Time used in polarization propagator calculation is      0.12 CPU seconds for symmetry 1

  Total CPU  time used in RESPONSE:   0.15 seconds
  Total wall time used in RESPONSE:   0.37 seconds


                   .-------------------------------------------.
                   | End of Dynamic Property Section (RESPONS) |
                   `-------------------------------------------'

  Total CPU  time used in DALTON:   0.34 seconds
  Total wall time used in DALTON:   1.42 seconds

 NOTE:    1 warnings have been issued.
 Check output, result, and error files for "WARNING".

 
     Date and time (Linux)  : Tue Jul  7 11:08:28 2026
     Host name              : n-62-31-5                               
