

     ************************************************************************
     *************** Dalton - An Electronic Structure Program ***************
     ************************************************************************

    This is output from DALTON release Dalton2024.0-dev (2024)
         ( Web site: http://daltonprogram.org )

   ----------------------------------------------------------------------------

    NOTE:
     
    Dalton is an experimental code for the evaluation of molecular
    properties using (MC)SCF, DFT, CI, and CC wave functions.
    The authors accept no responsibility for the performance of
    the code or for the correctness of the results.
     
    The code (in whole or part) is provided under a licence and
    is not to be reproduced for further distribution without
    the written permission of the authors or their representatives.
     
    See the home page "http://daltonprogram.org" for further information.
     
    If results obtained with this code are published,
    the appropriate citations would be both of:
     
       K. Aidas, C. Angeli, K. L. Bak, V. Bakken,
       R. Bast, L. Boman, O. Christiansen, R. Cimiraglia,
       S. Coriani, P. Dahle, E. K. Dalskov, U. Ekstroem,
       T. Enevoldsen, J. J. Eriksen, P. Ettenhuber, B. Fernandez,
       L. Ferrighi, H. Fliegl, L. Frediani, K. Hald, A. Halkier,
       C. Haettig, H. Heiberg, T. Helgaker, A. C. Hennum,
       H. Hettema, E. Hjertenaes, S. Hoest, I.-M. Hoeyvik,
       M. F. Iozzi, B. Jansik, H. J. Aa. Jensen, D. Jonsson,
       P. Joergensen, J. Kauczor, S. Kirpekar,
       T. Kjaergaard, W. Klopper, S. Knecht, R. Kobayashi, H. Koch,
       J. Kongsted, A. Krapp, K. Kristensen, A. Ligabue,
       O. B. Lutnaes, J. I. Melo, K. V. Mikkelsen, R. H. Myhre,
       C. Neiss, C. B. Nielsen, P. Norman, J. Olsen,
       J. M. H. Olsen, A. Osted, M. J. Packer, F. Pawlowski,
       T. B. Pedersen, P. F. Provasi, S. Reine, Z. Rinkevicius,
       T. A. Ruden, K. Ruud, V. Rybkin, P. Salek, C. C. M. Samson,
       A. Sanchez de Meras, T. Saue, S. P. A. Sauer,
       B. Schimmelpfennig, K. Sneskov, A. H. Steindal,
       K. O. Sylvester-Hvid, P. R. Taylor, A. M. Teale,
       E. I. Tellgren, D. P. Tew, A. J. Thorvaldsen, L. Thoegersen,
       O. Vahtras, M. A. Watson, D. J. D. Wilson, M. Ziolkowski
       and H. Agren,
       "The Dalton quantum chemistry program system",
       WIREs Comput. Mol. Sci. 2014, 4:269-284 (doi: 10.1002/wcms.1172)
     
    and
     
       Dalton, a molecular electronic structure program,
       Release Dalton2024.0-dev (2024), see http://daltonprogram.org
   ----------------------------------------------------------------------------

    Authors in alphabetical order (Major contribution(s) in parenthesis):

  Kestutis Aidas,              Vilnius University,        Lithuania   (QM/MM)
  Celestino Angeli,            University of Ferrara,     Italy       (NEVPT2)
  Juan J. Aucar,               Northeast National UniversiArgentina   (LRESC, Relativistic Effects on EFG)
  Keld L. Bak,                 UNI-C,                     Denmark     (AOSOPPA, non-adiabatic coupling, magnetic properties)
  Vebjoern Bakken,             University of Oslo,        Norway      (DALTON; geometry optimizer, symmetry detection)
  Radovan Bast,                UiT The Arctic U. of NorwayNorway      (DALTON installation and execution frameworks)
  Pablo Baudin,                University of Valencia,    Spain       (Cholesky excitation energies)
  Linus Boman,                 NTNU,                      Norway      (Cholesky decomposition and subsystems)
  Bruno N. Cabral Tenorio,     Technical Univ. of Denmark,Denmark     (Lanczos-based CC methods)
  Ove Christiansen,            Aarhus University,         Denmark     (CC module)
  Renzo Cimiraglia,            University of Ferrara,     Italy       (NEVPT2)
  Sonia Coriani,               Technical Univ. of Denmark,Denmark     (CC and RESPONS modules)
  Janusz Cukras,               University of Warsaw,      Poland      (MChD in RESPONS)
  Paal Dahle,                  University of Oslo,        Norway      (Parallelization)
  Erik K. Dalskov,             UNI-C,                     Denmark     (SOPPA)
  Thomas Enevoldsen,           Univ. of Southern Denmark, Denmark     (SOPPA)
  Janus J. Eriksen,            Aarhus University,         Denmark     (Polarizable embedding, TDA)
  Rasmus Faber,                Technical Univ. of Denmark,Denmark     (Vib.avg. NMR w. SOPPA, parallel AO-SOPPA, CVS-CC and EOMCC)
  Tobias Fahleson,             KTH Stockholm,             Sweden      (Damped cubic response)
  Berta Fernandez,             U. of Santiago de CompostelSpain       (Doublet spin, ESR in RESPONS)
  Lara Ferrighi,               Aarhus University,         Denmark     (PCM Cubic response)
  Heike Fliegl,                University of Oslo,        Norway      (CCSD(R12))
  Luca Frediani,               UiT The Arctic U. of NorwayNorway      (PCM)
  Emmanuel Fromager,           Univ. Strasbourg,          France      (MC-srDFT)
  Bin Gao,                     UiT The Arctic U. of NorwayNorway      (Gen1Int library)
  Andre S. P. Gomes,           CNRS/Universite de Lille,  France      (Frozen density embedding)
  Christof Haettig,            Ruhr-University Bochum,    Germany     (CC module)
  Kasper Hald,                 Aarhus University,         Denmark     (CC module)
  Asger Halkier,               Aarhus University,         Denmark     (CC module)
  Frederik Beyer Hansen,       University of Copenhagen,  Denmark     (Parallel AO-SOPPA)
  Erik D. Hedegaard,           Univ. of Southern Denmark, Denmark     (Polarizable embedding, QM/MM, and MC-srDFT)
  Hanne Heiberg,               University of Oslo,        Norway      (Geometry analysis, selected one-electron integrals)
  Trygve Helgaker,             University of Oslo,        Norway      (DALTON; ABACUS, ERI, DFT modules, London, and much more)
  Alf Christian Hennum,        University of Oslo,        Norway      (Parity violation)
  Hinne Hettema,               University of Auckland,    New Zealand (Quadratic response in RESPONS; SIRIUS supersymmetry)
  Andreas E. Hillers-Bendtsen, University of Copenhagen,  Denmark     (MP3)
  Eirik Hjertenaes,            NTNU,                      Norway      (Cholesky decomposition)
  Nicolai Machholdt Hoeyer,    Aarhus University,         Denmark     (MP3)
  Pi A. B. Haase,              University of Copenhagen,  Denmark     (Triplet AO-SOPPA)
  Maria Francesca Iozzi,       University of Oslo,        Norway      (RPA)
  Christoph Jacob,             TU Braunschweig            Germany     (Frozen density embedding)
  Brano Jansik,                Technical Univ. of Ostrava Czech Rep.  (DFT cubic response)
  Hans Joergen Aa. Jensen,     Univ. of Southern Denmark, Denmark     (DALTON; SIRIUS, RESPONS, ABACUS, MC-srDFT, and much more)
  Dan Jonsson,                 UiT The Arctic U. of NorwayNorway      (Cubic response in RESPONS module)
  Poul Joergensen,             Aarhus University,         Denmark     (RESPONS, ABACUS, and CC modules)
  Maciej Kaminski,             University of Warsaw,      Poland      (CPPh in RESPONS)
  Joanna Kauczor,              Linkoeping University,     Sweden      (Complex polarization propagator (CPP) module)
  Sheela Kirpekar,             Univ. of Southern Denmark, Denmark     (Mass-velocity & Darwin integrals)
  Frederik Oersted Kjeldal,    Technical Univ. of Denmark,Denmark     (MP3)
  Erik Kjellgren,              Univ. of Southern Denmark, Denmark     (MC-srDFT)
  Wim Klopper,                 KIT Karlsruhe,             Germany     (R12 code in CC, SIRIUS, and ABACUS modules)
  Stefan Knecht,               ETH Zurich,                Switzerland (Parallel CI and MCSCF, MC-srDFT)
  Rika Kobayashi,              Australian National Univ., Australia   (DIIS in CC, London in MCSCF)
  Henrik Koch,                 NTNU,                      Norway      (CC module, Cholesky decomposition)
  Jacob Kongsted,              Univ. of Southern Denmark, Denmark     (Polarizable embedding, polarizable density embedding, QM/MM)
  Andrea Ligabue,              University of Modena,      Italy       (CTOCD, AOSOPPA)
  Nanna H. List,               Univ. of Southern Denmark, Denmark     (Polarizable embedding)
  Ola B. Lutnaes,              University of Oslo,        Norway      (DFT Hessian)
  Juan I. Melo,                University of Buenos Aires,Argentina   (LRESC, Relativistic Effects on NMR Shieldings)
  Kurt V. Mikkelsen,           University of Copenhagen,  Denmark     (MC-SCRF, QM/MM, and MP3)
  Rolf H. Myhre,               NTNU,                      Norway      (Subsystems and CC3)
  Christian Neiss,             Univ. Erlangen-Nuernberg,  Germany     (CCSD(R12))
  Christian B. Nielsen,        University of Copenhagen,  Denmark     (QM/MM)
  Patrick Norman,              KTH Stockholm,             Sweden      (Cubic response and complex frequency response in RESPONS)
  Jeppe Olsen,                 Aarhus University,         Denmark     (SIRIUS CI/density modules)
  Jogvan Magnus H. Olsen,      Aarhus University,         Denmark     (Polarizable embedding and polarizable density embedding)
  Anders Osted,                Copenhagen University,     Denmark     (QM/MM)
  Martin J. Packer,            University of Sheffield,   UK          (SOPPA)
  Filip Pawlowski,             Kazimierz Wielki UniversityPoland      (CC3)
  Morten N. Pedersen,          Univ. of Southern Denmark, Denmark     (Polarizable embedding)
  Thomas B. Pedersen,          University of Oslo,        Norway      (Cholesky decomposition)
  Patricio F. Provasi,         University of Northeastern,Argentina   (Analysis of coupling constants in localized orbitals)
  Peter Reinholdt,             Univ. of Southern Denmark, Denmark     (Polarizable embedding and polarizable density embedding)
  Zilvinas Rinkevicius,        KTH Stockholm,             Sweden      (open-shell DFT, ESR)
  Elias Rudberg,               KTH Stockholm,             Sweden      (DFT grid and basis info)
  Torgeir A. Ruden,            University of Oslo,        Norway      (Numerical derivatives in ABACUS)
  Kenneth Ruud,                UiT The Arctic U. of NorwayNorway      (DALTON; ABACUS magnetic properties and much more)
  Pawel Salek,                 KTH Stockholm,             Sweden      (DALTON; DFT code)
  Claire C. M. Samson,         University of Karlsruhe    Germany     (Boys localization, r12 integrals in ERI)
  Alfredo Sanchez de Meras,    University of Valencia,    Spain       (CC module, Cholesky decomposition)
  Trond Saue,                  Paul Sabatier University,  France      (direct Fock matrix construction)
  Stephan P. A. Sauer,         University of Copenhagen,  Denmark     (SOPPA(CCSD), SOPPA prop., AOSOPPA, vibrational g-factors)
  Bernd Schimmelpfennig,       Forschungszentrum KarlsruheGermany     (AMFI module)
  Anna K. Schnack-Petersen,    University of Copenhagen,  Denmark     (RPA(D) and HRPA(D) properties in AOSOPPA)
  Kristian Sneskov,            Aarhus University,         Denmark     (Polarizable embedding, QM/MM)
  Arnfinn H. Steindal,         UiT The Arctic U. of NorwayNorway      (parallel QM/MM, polarizable embedding)
  Casper Steinmann,            Aalborg University,        Denmark     (QFIT, polarizable embedding)
  K. O. Sylvester-Hvid,        University of Copenhagen,  Denmark     (MC-SCRF)
  Peter R. Taylor,             VLSCI/Univ. of Melbourne,  Australia   (Symmetry handling ABACUS, integral transformation)
  Andrew M. Teale,             University of Nottingham,  England     (DFT-AC, DFT-D)
  David P. Tew,                University of Bristol,     England     (CCSD(R12))
  Julien Toulouse,             Sorbonne Univ.,            France      (MC-srDFT)
  Olav Vahtras,                KTH Stockholm,             Sweden      (Triplet response, spin-orbit, ESR, TDDFT, open-shell DFT)
  Lucas Visscher,              Vrije Universiteit AmsterdaNetherlands (Frozen density embedding)
  David J. Wilson,             La Trobe University,       Australia   (DFT Hessian and DFT magnetizabilities)
  Luna Zamok,                  University of Copenhagen,  Denmark     (Block Lanczos RPA solver in SOPPA module)
  Hans Agren,                  KTH Stockholm,             Sweden      (SIRIUS module, RESPONS, MC-SCRF solvation)
 --------------------------------------------------------------------------------

     Date and time (Linux)  : Tue Jul  7 16:09:41 2026
     Host name              : n-62-31-22                              

 * Work memory size             :   512000000 =  3.815 gigabytes.

 * Directories for basis set searches:
   1) /work3/jochar/DaltonTests
   2) /zhome/d7/7/119775/My_Codes/Dalton_Release/dalton/build_omp_nov24/basis


Compilation information
-----------------------

 Who compiled             | soco
 Host                     | hpclogin1
 System                   | Linux-6.1.112-1.el9.elrepo.x86_64
 CMake generator          | Unix Makefiles
 Processor                | x86_64
 64-bit integers          | OFF
 MPI                      | OFF
 Fortran compiler         | /appl/intel/2023.2.0.49397/compiler/2023.2.0/linux
                          | /bin/intel64/ifort
 Fortran compiler version | ifort (IFORT) 2021.10.0 20230609
 C compiler               | /appl/intel/2023.2.0.49397/compiler/2023.2.0/linux
                          | /bin/intel64/icc
 C compiler version       | icc (ICC) 2021.10.0 20230609
 C++ compiler             | /appl/intel/2023.2.0.49397/compiler/2023.2.0/linux
                          | /bin/intel64/icpc
 C++ compiler version     | icpc (ICC) 2021.10.0 20230609
 Static linking           | OFF
 Last Git revision        | a531ac4fbf115ebda1c90140ce3fd6aa236a2033
 Git branch               | master
 Configuration time       | 2024-11-14 11:23:30.470039

 * Sequential calculation.


   Content of the .dal input file
 ----------------------------------

**DALTON INPUT
.RUN WAVE FUNCTIONS   !tipo di calcolo
.RUN RESPONSE
**INTEGRALS
.DIPLEN               !integrali dell'operatore dipolo elettrico
**WAVE FUNCTION
.HF
.CI
!*PRINT
!.PRINTL
!   0 11
*SCF INP              !parte da Hartree-Fock
.DOUBLY OCCUPIED
2
.THRESH               !soglia di convergenza
 1.0D-10
*CONFIGURATION INPUT
.SPIN MULTIPLICITY
1
.SYMMETRY
1
.INACTIVE ORBITALS !the inner electrons are kept frozen
0
.CAS SPACE
6
.ELECTRONS
4
**RESPONS
*LINEAR
.THCLR
1.0d-9
.DIPLEN
.SINGLE RESIDUE
.ROOTS
300
**END OF INPUT


   Content of the .mol file
 ----------------------------

BASIS
cc-pVDZ
test VQE
dalton test
Atomtypes=2 Angstrom Nosymmetry
Charge=3.0 Atoms=1
Li    0.0000000000000000  0.0000000000000000  0.0
Charge=1.0 Atoms=1
H     1.5950000000000000  0.0000000000000000  0.0


       *******************************************************************
       *********** Output from DALTON general input processing ***********
       *******************************************************************

 --------------------------------------------------------------------------------
   Overall default print level:    0
   Print level for DALTON.STAT:    1

    HERMIT 1- and 2-electron integral sections will be executed
    "Old" integral transformation used (limited to max 255 basis functions)
    Wave function sections will be executed (SIRIUS module)
    Dynamic molecular response properties section will be executed (RESPONSE module)
 --------------------------------------------------------------------------------


   ****************************************************************************
   *************** Output of molecule and basis set information ***************
   ****************************************************************************


    The two title cards from your ".mol" input:
    --------------------------------------------------------------------------------
 1: test VQE
 2: dalton test
    --------------------------------------------------------------------------------

  Coordinates are entered in Angstrom and converted to atomic units.
          - Conversion factor : 1 bohr = 0.52917721 A

  Atomic type no.    1
  --------------------
  Nuclear charge:   3.00000
  Number of symmetry independent centers:    1
  Number of basis sets to read;    2
  Basis set file used for this atomic type with Z =   3 :
     "/zhome/d7/7/119775/My_Codes/Dalton_Release/dalton/build_omp_nov24/basis/cc-pVDZ"

  Atomic type no.    2
  --------------------
  Nuclear charge:   1.00000
  Number of symmetry independent centers:    1
  Number of basis sets to read;    2
  Basis set file used for this atomic type with Z =   1 :
     "/zhome/d7/7/119775/My_Codes/Dalton_Release/dalton/build_omp_nov24/basis/cc-pVDZ"


                         SYMGRP: Point group information
                         -------------------------------

@    Point group: C1 


                                 Isotopic Masses
                                 ---------------

                           Li          7.016005
                           H           1.007825

                       Total mass:     8.023830 amu
                       Natural abundance:  92.486 %

 Center-of-mass coordinates (a.u.):    0.378585    0.000000    0.000000
 Center-of-mass coordinates (Angs):    0.200338    0.000000    0.000000


  Atoms and basis sets
  --------------------

  Number of atom types :    2
  Total number of atoms:    2

  Basis set used is "cc-pVDZ" from the basis set library.

  label    atoms   charge   prim   cont     basis
  ----------------------------------------------------------------------
  Li          1    3.0000    26    14      [9s4p1d|3s2p1d]                                    
  H           1    1.0000     7     5      [4s1p|2s1p]                                        
  ----------------------------------------------------------------------
  total:      2    4.0000    33    19
  ----------------------------------------------------------------------
  Spherical harmonic basis used.

  Threshold for neglecting AO integrals:  1.00D-12


  Cartesian Coordinates (a.u.)
  ----------------------------

  Total number of coordinates:    6
  Li      :     1  x   0.0000000000    2  y   0.0000000000    3  z   0.0000000000
  H       :     4  x   3.0141131694    5  y   0.0000000000    6  z   0.0000000000


   Interatomic separations (in Angstrom):
   --------------------------------------

            Li          H     
            ------      ------
 Li    :    0.000000
 H     :    1.595000    0.000000


  Max    interatomic separation is    1.5950 Angstrom (    3.0141 Bohr)
  between atoms    2 and    1, "H     " and "Li    ".

  Min HX interatomic separation is    1.5950 Angstrom (    3.0141 Bohr)


  Bond distances (Angstrom):
  --------------------------

                  atom 1     atom 2       distance
                  ------     ------       --------
  bond distance:  H          Li           1.595000




 Principal moments of inertia (u*A**2) and principal axes
 --------------------------------------------------------

   IA       0.000000          1.000000    0.000000    0.000000
   IB       2.241892          0.000000    1.000000    0.000000
   IC       2.241892          0.000000    0.000000    1.000000


 Rotational constants
 --------------------

@    The molecule is linear.

               B =       225425.23 MHz     (    7.519376 cm-1)


@  Nuclear repulsion energy :    0.995317637868 Hartree


                     .---------------------------------------.
                     | Starting in Integral Section (HERMIT) |
                     `---------------------------------------'



 ***************************************************************************************
 ****************** Output from **INTEGRALS input processing (HERMIT) ******************
 ***************************************************************************************



    *************************************************************************
    ****************** Output from HERMIT input processing ******************
    *************************************************************************


 Default print level:        1

 Calculation of one- and two-electron Hamiltonian integrals.

 The following one-electron property integrals are calculated as requested:
          - overlap integrals
          - dipole length integrals

 Center of mass  (bohr):      0.378584616687      0.000000000000      0.000000000000
 Operator center (bohr):      0.000000000000      0.000000000000      0.000000000000
 Gauge origin    (bohr):      0.000000000000      0.000000000000      0.000000000000
 Dipole origin   (bohr):      0.000000000000      0.000000000000      0.000000000000

Calculation of 2-electron integrals are postponed until they are needed.


     ************************************************************************
     ************************** Output from HERINT **************************
     ************************************************************************



                      Nuclear contribution to dipole moments
                      --------------------------------------

                 au               Debye          C m (/(10**-30)

      x      3.01411317         7.66111102        25.55471565
      y      0.00000000         0.00000000         0.00000000
      z      0.00000000         0.00000000         0.00000000


  Total CPU  time used in HERMIT:   0.01 seconds
  Total wall time used in HERMIT:   0.03 seconds


                        .----------------------------------.
                        | End of Integral Section (HERMIT) |
                        `----------------------------------'



                   .--------------------------------------------.
                   | Starting in Wave Function Section (SIRIUS) |
                   `--------------------------------------------'


     WARNING  Reference state is required for CI response and CI-NO
     WARNING  ".STATE" was not specified for "*CI INPUT",
     WARNING  the reference state is set to be state no.  1

 *** Output from Huckel module :

     Using EWMO model:          T
     Using EHT  model:          F
     Number of Huckel orbitals each symmetry:    6

 EWMO - Energy Weighted Maximum Overlap - is a Huckel type method,
        which normally is better than Extended Huckel Theory.
 Reference: Linderberg and Ohrn, Propagators in Quantum Chemistry (Wiley, 1973)

 Huckel EWMO eigenvalues for symmetry :  1
           -2.483509      -0.580536      -0.169654      -0.130000      -0.130000
           -0.070301

 **********************************************************************
 *SIRIUS* a direct, restricted step, second order MCSCF program       *
 **********************************************************************

 
     Date and time (Linux)  : Tue Jul  7 16:09:41 2026
     Host name              : n-62-31-22                              

 Title lines from ".mol" input file:
     test VQE
     dalton test

 Print level on unit LUPRI =   2 is   0
 Print level on unit LUW4  =   2 is   5

@    Configuration interaction calculation.

@    CI response calculation.

@    CI type: user specified active spaces.
@              Type: complete active space calculation (CAS).

@    This is a combination run starting with
@              a restricted, closed shell Hartree-Fock calculation


 Initial molecular orbitals are obtained according to
 ".MOSTART EWMO  " input option

     Wave function specification
     ============================
@    Wave function type        --- CI ---
@    Number of closed shell electrons           0
@    Number of electrons in active shells       4
@    Total charge of the molecule               0

@    Spin multiplicity and 2 M_S                1         0
@    Total number of symmetries                 1 (point group: C1 )
@    Reference state symmetry                   1 (irrep name : A  )

     Orbital specifications
     ======================
@    Abelian symmetry species          All |    1
@                                          |  A  
                                       --- |  ---
@    Inactive orbitals                   0 |    0
@    Active orbitals                     6 |    6
@    Secondary orbitals                 13 |   13
@    Total number of orbitals           19 |   19
@    Number of basis functions          19 |   19

      -- Initial occupation of symmetries is determined from user input.                      
      -- Initial occupation of symmetries is :
@    Occupied SCF orbitals               2 |    2

     Optimization information
     ========================
@    Number of configurations               105
@    Number of orbital rotations              0
     ------------------------------------------
@    Total number of variables              105

     Maximum number of CI iterations         25
     Threshold for CI convergence      1.00D-05
     Number of CI roots to converge           1

@    Reference state in CI response calculation :       1


 ***********************************************
 ***** DIIS acceleration of SCF iterations *****
 ***********************************************

 C1-DIIS algorithm; max error vectors =    8

 Iter      Total energy        Error norm    Delta(E)  DIIS dim.
 -----------------------------------------------------------------------------

Calculating AOSUPINT

---> (Re)generating AOTWOINT


     ************************************************************************
     ************************** Output from HERINT **************************
     ************************************************************************


 Threshold for neglecting two-electron integrals:  1.00D-12
 HERMIT - Number of two-electron integrals written:        4420 ( 24.4% )
 HERMIT - Megabytes written:                              0.137

     (Precalculated AO two-electron integrals are transformed to P-supermatrix elements.
      Threshold for discarding integrals :  1.00D-12 )

@  1    -7.94016758073        5.67773D-01   -7.94D+00    1
      Virial theorem: -V/T =      1.966152
@    MULPOP   Li      0.63; H      -0.63; 
   1  Level shift: doubly occupied orbital energies shifted by -2.00D-01
 -----------------------------------------------------------------------------
@  2    -7.98001750402        1.47156D-01   -3.98D-02    2
      Virial theorem: -V/T =      1.993866
@    MULPOP   Li      0.31; H      -0.31; 
   2  Level shift: doubly occupied orbital energies shifted by -1.00D-01
 -----------------------------------------------------------------------------
@  3    -7.98343627348        2.48129D-02   -3.42D-03    3
      Virial theorem: -V/T =      1.999744
@    MULPOP   Li      0.16; H      -0.16; 
   3  Level shift: doubly occupied orbital energies shifted by -2.50D-02
 -----------------------------------------------------------------------------
@  4    -7.98361080820        3.17933D-03   -1.75D-04    4
      Virial theorem: -V/T =      2.000204
@    MULPOP   Li      0.12; H      -0.12; 
 -----------------------------------------------------------------------------
@  5    -7.98361538762        8.06677D-04   -4.58D-06    5
      Virial theorem: -V/T =      2.000147
@    MULPOP   Li      0.11; H      -0.11; 
 -----------------------------------------------------------------------------
@  6    -7.98361584448        1.88893D-04   -4.57D-07    6
      Virial theorem: -V/T =      2.000136
@    MULPOP   Li      0.11; H      -0.11; 
 -----------------------------------------------------------------------------
@  7    -7.98361586696        1.15249D-05   -2.25D-08    7
      Virial theorem: -V/T =      2.000131
@    MULPOP   Li      0.11; H      -0.11; 
 -----------------------------------------------------------------------------
@  8    -7.98361586701        1.39890D-06   -4.97D-11    8
      Virial theorem: -V/T =      2.000131
@    MULPOP   Li      0.11; H      -0.11; 
 -----------------------------------------------------------------------------
@  9    -7.98361586701        1.00717D-07   -7.74D-13    8
      Virial theorem: -V/T =      2.000131
@    MULPOP   Li      0.11; H      -0.11; 
 -----------------------------------------------------------------------------
@ 10    -7.98361586701        7.97241D-09    1.78D-15    8
      Virial theorem: -V/T =      2.000131
@    MULPOP   Li      0.11; H      -0.11; 
 -----------------------------------------------------------------------------
@ 11    -7.98361586701        9.42286D-10   -1.78D-15    8
      Virial theorem: -V/T =      2.000131
@    MULPOP   Li      0.11; H      -0.11; 
 -----------------------------------------------------------------------------
@ 12    -7.98361586701        2.30169D-10   -1.78D-15    8
      Virial theorem: -V/T =      2.000131
@    MULPOP   Li      0.11; H      -0.11; 
 -----------------------------------------------------------------------------
@ 13    -7.98361586701        1.56288D-11    1.78D-15    8

@ *** DIIS converged in  13 iterations !
@     Converged SCF energy, gradient:     -7.983615867012    1.56D-11
    - total time used in SIRFCK :              0.00 seconds

 --- Writing SIRIFC interface file

--------------------------------------------------------------------------------


     .--------------------------------------------------.
     | HF-SCF KT IPs [a.u. & eV] from Koopmans' theorem |
     `--------------------------------------------------'


     HF-SCF KT symmetry 1 ( A  ) in point group C1  -- 2 principal poles with pole strength 1

   ============  ============
       2.450579      0.300475
      66.683646      8.176353
   ============  ============

@ Summary of HF-SCF KT ionization potentials [eV]:

@ Symmetry 1 (A  ) :    66.684       8.176

  === End of HF-SCF KT output ===
--------------------------------------------------------------------------------


 CPU and wall time for SCF :       0.043       0.478


 ----- Output from SIRIUS CI module (CICTL) -----




 2-el. integral transformation level 0: Total CPU and WALL times (sec)       0.005       0.032

 (CIST1) 8 lowest diagonal elements:

 Element no. Config.no.    Active energy      Total energy

         1 :          1     -8.9789335049     -7.9836158670
         2 :         16     -8.8270925992     -7.8317749613
         3 :         19     -8.7864078823     -7.7910902444
         4 :         17     -8.7864078823     -7.7910902444
         5 :         22     -8.7451638136     -7.7498461757
         6 :         23     -8.3324429754     -7.3371253376
         7 :         18     -8.3222471340     -7.3269294962
         8 :         20     -8.3222471340     -7.3269294962

Lowest 1 elements are used as separate start CI vectors.


 Convergence threshold for CI optimization :     0.00001000


 CI root     eigenvalue        residual norm

    1       -7.9836158670        0.0284262293

 CI root     eigenvalue        residual norm

    1       -7.9848176557        0.0051736505

 CI root     eigenvalue        residual norm

    1       -7.9849393733        0.0011362115

 CI root     eigenvalue        residual norm

    1       -7.9849413275        0.0001410587

 CI root     eigenvalue        residual norm

    1       -7.9849413398        0.0000077869 converged

 The requested root number is now converged.


 *** CI converged in  5 iterations.



@ Final CI energies and residuals in symmetry 1 (irrep A  )
@    1       -7.984941339782236       7.79D-06

 Writing SIRIFC interface file for CI root no. 1

 CPU and wall time for CI :       0.010       0.071


                       .-----------------------------------.
                       | --- Final results from SIRIUS --- |
                       `-----------------------------------'


@    Spin multiplicity:           1
@    Spatial symmetry:            1 ( irrep  A   in C1  )
@    Total charge of molecule:    0

@    This was a CI calculation.
@    State number:                1

@    Final CI energy:              -7.984941339782
@    Nuclear repulsion:             0.995317637868
@    Electronic energy:            -8.980258977651

@    Final gradient norm:           0.000007786855

 
     Date and time (Linux)  : Tue Jul  7 16:09:42 2026
     Host name              : n-62-31-22                              

 Occupancies of natural orbitals
 -------------------------------

 Symmetry 1  ( A  ) -- Total occupation in this symmetry is   4.000000000

   1.999998538   1.995362824   0.000004117   0.000095071   0.000095071
   0.004444379

  Effective numbers of unpaired electrons this symmetry Eqs. 1) and 2):  0.02  0.00

  Total effective number of unpaired electrons :
  Eq. 1) sum(i) [(2 - n_i) n_i]    =  0.0185
  Eq. 2) sum(i) [(2 - n_i) n_i]**2 =  0.0002
 (Reference: M. Head-Gordon, Chemical Physics Letters 372 (2003) 508-511)

  --- NOTE THAT THE OCCUPATION NUMBERS ARE FOR ANALYSIS PURPOSE ONLY
  --- The orbital coefficients have NOT been transformed
  --- to ordered natural orbitals.

File label for MO orbitals:   7Jul26    CIORB  

 (Only coefficients > 0.0100 are printed.)

 Molecular orbitals for symmetry species 1  (A  )
 ------------------------------------------------

    Orbital         1        2        3        4        5        6        7
   1 Li  :1s    -0.9974  -0.0279   0.1248   0.0000  -0.0000   0.0119   0.4474
   2 Li  :1s     0.0066   0.2955   0.0541  -0.0000  -0.0000  -0.0351   1.5304
   3 Li  :1s     0.0047   0.1095  -0.8220  -0.0000  -0.0000  -0.7004  -1.6055
   4 Li  :2px    0.0141   0.2785   0.2020   0.0000   0.0000   0.3388  -0.7807
   5 Li  :2py   -0.0000   0.0000  -0.0000   0.0141   0.0807  -0.0000   0.0000
   6 Li  :2pz   -0.0000  -0.0000   0.0000  -0.0807   0.0141   0.0000  -0.0000
   7 Li  :2px   -0.0028   0.0082   0.4920   0.0000   0.0000  -1.1123   0.2986
   8 Li  :2py   -0.0000   0.0000  -0.0000   0.1624   0.9308  -0.0000   0.0000
   9 Li  :2pz   -0.0000  -0.0000   0.0000  -0.9308   0.1624   0.0000  -0.0000
  10 Li  :3d2-   0.0000  -0.0000   0.0000  -0.0091  -0.0521   0.0000  -0.0000
  12 Li  :3d0   -0.0024  -0.0282   0.0182  -0.0000   0.0000   0.0236  -0.0059
  13 Li  :3d1+   0.0000   0.0000  -0.0000   0.0521  -0.0091  -0.0000   0.0000
  14 Li  :3d2+   0.0042   0.0489  -0.0315   0.0000  -0.0000  -0.0408   0.0103
  15 H   :1s    -0.0062   0.6709   0.1163   0.0000   0.0000   0.1633  -0.0273
  16 H   :1s    -0.0100  -0.0921   0.0381  -0.0000  -0.0000   0.5037   0.3415
  17 H   :2px    0.0017  -0.0131  -0.0009  -0.0000  -0.0000  -0.0068  -0.0071

    Orbital         8        9       10       11       12       13       14
   1 Li  :1s     0.0000   0.0000  -0.3119  -0.0000  -0.0000   0.0000   0.0000
   2 Li  :1s    -0.0000   0.0000  -0.9731  -0.0000   0.0000   0.0000   0.0000
   3 Li  :1s    -0.0000   0.0000   0.4355  -0.0000   0.0000  -0.0000   0.0000
   4 Li  :2px    0.0000  -0.0000  -0.7939   0.0000  -0.0000   0.0000   0.0000
   5 Li  :2py    0.0516  -1.2682  -0.0000   0.1549  -0.0005   0.0000   0.0000
   6 Li  :2pz   -1.2682  -0.0516  -0.0000   0.0005   0.1549   0.0000   0.0000
   7 Li  :2px    0.0000  -0.0000   0.2622   0.0000  -0.0000  -0.0000   0.0000
   8 Li  :2py   -0.0352   0.8657  -0.0000  -0.0542   0.0002   0.0000   0.0000
   9 Li  :2pz    0.8657   0.0352  -0.0000  -0.0002  -0.0542   0.0000   0.0000
  10 Li  :3d2-  -0.0049   0.1200   0.0000   0.9928  -0.0031   0.0000   0.0000
  11 Li  :3d1-   0.0000   0.0000   0.0000   0.0000   0.0000   0.0000   1.0000
  12 Li  :3d0   -0.0000  -0.0000  -0.3139   0.0000   0.0000   0.8660   0.0000
  13 Li  :3d1+   0.1200   0.0049   0.0000   0.0031   0.9928   0.0000   0.0000
  14 Li  :3d2+   0.0000   0.0000   0.5438  -0.0000  -0.0000   0.5000   0.0000
  15 H   :1s    -0.0000  -0.0000   0.1660   0.0000   0.0000  -0.0000   0.0000
  16 H   :1s    -0.0000   0.0000   0.4318  -0.0000  -0.0000   0.0000   0.0000
  18 H   :2py    0.0004  -0.0105  -0.0000  -0.0034   0.0000   0.0000   0.0000
  19 H   :2pz   -0.0105  -0.0004  -0.0000  -0.0000  -0.0034   0.0000   0.0000

    Orbital        15       16
   1 Li  :1s     0.9520   0.0341
   2 Li  :1s     2.2875  -0.1517
   3 Li  :1s     0.0463   0.2863
   4 Li  :2px    2.3782  -0.3401
   7 Li  :2px    0.0225   0.2951
  12 Li  :3d0   -0.7908   0.2286
  14 Li  :3d2+   1.3697  -0.3960
  15 H   :1s     0.1347   2.4485
  16 H   :1s    -3.8401  -2.2870
  17 H   :2px    0.0144  -0.0415

 Printout of CI-coefficients abs greater than 0.05000 for root  1
 *** NOTE: this root is the CI reference state ***

 Printout of coefficients in interval  3.1623E-01 to  1.0000E+00
 ===============================================================

  Coefficient of CSF no.         1 is      0.99851870    9.98518697E-01
  Orbital          1   2
  Spin coupling    2   2

 Printout of coefficients in interval  1.0000E-01 to  3.1623E-01
 ===============================================================
   ( no coefficients )

 Printout of coefficients in interval  5.0000E-02 to  1.0000E-01
 ===============================================================
   ( no coefficients )

 Norm of printed CI vector ..      0.99703959

 Magnitude of CI coefficients
 ============================
 ( Ranges are relative to norm of vector :  1.00E+00 )

  10- 1 to 10- 0         1    0.99703959E+00      0.9970395877
  10- 2 to 10- 1         5    0.28632940E-02      0.9999028817
  10- 3 to 10- 2         2    0.94961778E-04      0.9999978435
  10- 4 to 10- 3         9    0.21478528E-05      0.9999999913
  10- 5 to 10- 4        11    0.84531850E-08      0.9999999998
  10- 6 to 10- 5        12    0.21469554E-09      1.0000000000
  10- 7 to 10- 6         1    0.22824367E-12      1.0000000000
  Number of coefficients less than 10^-11 times norm is           64

  Total CPU  time used in SIRIUS :   0.07 seconds
  Total wall time used in SIRIUS :   0.68 seconds

 
     Date and time (Linux)  : Tue Jul  7 16:09:42 2026
     Host name              : n-62-31-22                              


                     .---------------------------------------.
                     | End of Wave Function Section (SIRIUS) |
                     `---------------------------------------'



                 .------------------------------------------------.
                 | Starting in Dynamic Property Section (RESPONS) |
                 `------------------------------------------------'


 ----------------------------------------------------------------------------------------
  RESPONSE  -  an MCSCF, MC-srDFT, DFT, SOPPA and SOPPA-srDFT response property program
 ----------------------------------------------------------------------------------------

 This is a configuration interaction response calculation.
   Note: this is equivalent to a CI sum-over-states calculation of response properties.


 -------- OUTPUT FROM RESPONSE INPUT PROCESSING --------




  Linear Response single residue calculation
 -------------------------------------------


    4 input options by user.

 Print level                                    : IPRPP  =   2
 Maximum number of iterations for eigenval.eqs. : MAXITP =  60
 Threshold for convergence of eigenvalue eqs.   : THCPP  = 1.000D-03
 Maximum iterations in optimal orbital algorithm: MAXITO =   5

    300 Excitation energies are calculated for symmetry no.    1

      3 property residues are calculated with labels:

               XDIPLEN 
               YDIPLEN 
               ZDIPLEN 

 Old direct access AO file found, SORTA skipped.

 2-el. integral transformation level 4: Total CPU and WALL times (sec)       0.006       0.050


 CI energy            :       -7.984941339782236
 -- inactive part     :        0.995317637868339
 --   active part     :       -8.980258977650575
 -- nuclear repulsion :        0.995317637868339


                         *******************************
                         *** CI response calculation ***
                         *******************************

 ----------------------------------------------------------------
 ----- Linear response calculation
 ----- Symmetry of excitation/property operator(s)    1  ( A  )
 ----------------------------------------------------------------

 Number of excitations of this symmetry          300
 Number of response properties of this symmetry    0
 Number of C6/C8 properties of this symmetry       0


 Perturbation symmetry.     KSYMOP:           1
 Perturbation spin symmetry.TRPLET:           F
 Orbital variables.         KZWOPT:           0
 Configuration variables.   KZCONF:         105
 Total number of variables. KZVAR :         105

 ** RSPVAR ** Number of PP start vectors  300
   exceeds the maximum number of variables  104
   Number of start vectors reset to number of variables



 --- EXCITATION ENERGIES AND TRANSITION MOMENT CALCULATION (MCTDHF) ---

 Operator symmetry = 1  ( A  ); triplet =   F

RSPORT:    1 out of  105 new trial vectors linear dependent

 ** RSPCTL MICROITERATION NUMBER    1

      Root  Residual tot.,    conf., and orb.    Bnorm      Eigenvalue
      ----------------------------------------------------------------
         1    5.39720D-15  5.40D-15  0.00D+00  1.00D+00    1.38020D-01
         2    1.21922D-14  1.22D-14  0.00D+00  1.00D+00    1.81569D-01
         3    4.78320D-15  4.78D-15  0.00D+00  1.00D+00    1.81569D-01
         4    7.60484D-15  7.60D-15  0.00D+00  1.00D+00    2.36790D-01
         5    7.98418D-15  7.98D-15  0.00D+00  1.00D+00    6.00466D-01
         6    7.90859D-15  7.91D-15  0.00D+00  1.00D+00    6.69110D-01
         7    1.13209D-14  1.13D-14  0.00D+00  1.00D+00    6.69110D-01
         8    5.59634D-15  5.60D-15  0.00D+00  1.00D+00    6.90410D-01
         9    7.98849D-15  7.99D-15  0.00D+00  1.00D+00    6.91213D-01
        10    1.19584D-14  1.20D-14  0.00D+00  1.00D+00    6.91213D-01
        11    9.41190D-15  9.41D-15  0.00D+00  1.00D+00    7.20607D-01
        12    9.43189D-15  9.43D-15  0.00D+00  1.00D+00    7.28877D-01
        13    1.01800D-14  1.02D-14  0.00D+00  1.00D+00    7.28877D-01
        14    9.35248D-15  9.35D-15  0.00D+00  1.00D+00    7.83843D-01
        15    8.21058D-15  8.21D-15  0.00D+00  1.00D+00    2.21042D+00
        16    9.14366D-15  9.14D-15  0.00D+00  1.00D+00    2.31381D+00
        17    1.08736D-14  1.09D-14  0.00D+00  1.00D+00    2.31381D+00
        18    9.76168D-15  9.76D-15  0.00D+00  1.00D+00    2.38893D+00
        19    8.85295D-15  8.85D-15  0.00D+00  1.00D+00    2.45669D+00
        20    7.74814D-15  7.75D-15  0.00D+00  1.00D+00    2.50913D+00
        21    1.39909D-14  1.40D-14  0.00D+00  1.00D+00    2.50913D+00
        22    7.39489D-15  7.39D-15  0.00D+00  1.00D+00    2.56236D+00
        23    9.47301D-15  9.47D-15  0.00D+00  1.00D+00    2.56236D+00
        24    1.47315D-14  1.47D-14  0.00D+00  1.00D+00    2.57562D+00
        25    1.64129D-14  1.64D-14  0.00D+00  1.00D+00    2.60307D+00
        26    9.80013D-15  9.80D-15  0.00D+00  1.00D+00    2.62093D+00
        27    8.16712D-15  8.17D-15  0.00D+00  1.00D+00    2.64405D+00
        28    1.06251D-14  1.06D-14  0.00D+00  1.00D+00    2.64405D+00
        29    1.10452D-14  1.10D-14  0.00D+00  1.00D+00    2.66765D+00
        30    8.66519D-15  8.67D-15  0.00D+00  1.00D+00    2.68726D+00
        31    1.13467D-14  1.13D-14  0.00D+00  1.00D+00    2.68726D+00
        32    1.28395D-14  1.28D-14  0.00D+00  1.00D+00    2.70960D+00
        33    1.19474D-14  1.19D-14  0.00D+00  1.00D+00    2.70960D+00
        34    2.09772D-14  2.10D-14  0.00D+00  1.00D+00    2.78729D+00
        35    1.04230D-14  1.04D-14  0.00D+00  1.00D+00    3.07080D+00
        36    1.25136D-14  1.25D-14  0.00D+00  1.00D+00    3.07080D+00
        37    2.07908D-14  2.08D-14  0.00D+00  1.00D+00    3.12296D+00
        38    1.02285D-14  1.02D-14  0.00D+00  1.00D+00    3.16549D+00
        39    1.22281D-14  1.22D-14  0.00D+00  1.00D+00    3.16549D+00
        40    1.58177D-14  1.58D-14  0.00D+00  1.00D+00    3.18189D+00
        41    1.10743D-14  1.11D-14  0.00D+00  1.00D+00    3.19767D+00
        42    1.01778D-14  1.02D-14  0.00D+00  1.00D+00    3.21985D+00
        43    1.09774D-14  1.10D-14  0.00D+00  1.00D+00    3.21985D+00
        44    8.20623D-15  8.21D-15  0.00D+00  1.00D+00    3.24867D+00
        45    1.00196D-14  1.00D-14  0.00D+00  1.00D+00    3.24867D+00
        46    9.45326D-15  9.45D-15  0.00D+00  1.00D+00    3.28857D+00
        47    1.36540D-14  1.37D-14  0.00D+00  1.00D+00    3.28857D+00
        48    1.35547D-14  1.36D-14  0.00D+00  1.00D+00    3.29232D+00
        49    1.27552D-14  1.28D-14  0.00D+00  1.00D+00    3.33745D+00
        50    1.16272D-14  1.16D-14  0.00D+00  1.00D+00    3.33801D+00
        51    1.09381D-14  1.09D-14  0.00D+00  1.00D+00    3.33801D+00
        52    1.65308D-14  1.65D-14  0.00D+00  1.00D+00    3.36288D+00
        53    1.29937D-14  1.30D-14  0.00D+00  1.00D+00    3.41111D+00
        54    7.16930D-15  7.17D-15  0.00D+00  1.00D+00    3.41111D+00
        55    1.66602D-14  1.67D-14  0.00D+00  1.00D+00    5.75956D+00
        56    1.89668D-14  1.90D-14  0.00D+00  1.00D+00    5.92103D+00
        57    1.81450D-14  1.81D-14  0.00D+00  1.00D+00    5.92103D+00
        58    2.88262D-14  2.88D-14  0.00D+00  1.00D+00    5.98807D+00
        59    1.77247D-14  1.77D-14  0.00D+00  1.00D+00    6.06618D+00
        60    2.72740D-14  2.73D-14  0.00D+00  1.00D+00    6.06618D+00
        61    3.03354D-14  3.03D-14  0.00D+00  1.00D+00    6.08736D+00
        62    1.64366D-14  1.64D-14  0.00D+00  1.00D+00    6.16047D+00
        63    2.00907D-14  2.01D-14  0.00D+00  1.00D+00    6.16047D+00
        64    2.00442D-14  2.00D-14  0.00D+00  1.00D+00    6.20240D+00
        65    2.11156D-14  2.11D-14  0.00D+00  1.00D+00    6.20240D+00
        66    2.06496D-14  2.06D-14  0.00D+00  1.00D+00    6.26426D+00
        67    2.62027D-14  2.62D-14  0.00D+00  1.00D+00    6.27766D+00
        68    2.18914D-14  2.19D-14  0.00D+00  1.00D+00    6.34391D+00
        69    2.52654D-14  2.53D-14  0.00D+00  1.00D+00    6.34391D+00
        70    2.13355D-14  2.13D-14  0.00D+00  1.00D+00    6.36113D+00
        71    1.74361D-14  1.74D-14  0.00D+00  1.00D+00    6.37774D+00
        72    1.41370D-14  1.41D-14  0.00D+00  1.00D+00    6.42251D+00
        73    3.17080D-14  3.17D-14  0.00D+00  1.00D+00    6.42251D+00
        74    1.65253D-14  1.65D-14  0.00D+00  1.00D+00    6.45127D+00
        75    2.66199D-14  2.66D-14  0.00D+00  1.00D+00    6.45127D+00
        76    3.48220D-14  3.48D-14  0.00D+00  1.00D+00    6.52067D+00
        77    2.44164D-14  2.44D-14  0.00D+00  1.00D+00    6.52588D+00
        78    2.44706D-14  2.45D-14  0.00D+00  1.00D+00    6.52588D+00
        79    1.54870D-14  1.55D-14  0.00D+00  1.00D+00    6.60216D+00
        80    2.39283D-14  2.39D-14  0.00D+00  1.00D+00    6.60216D+00
        81    2.20158D-14  2.20D-14  0.00D+00  1.00D+00    6.60296D+00
        82    1.60921D-14  1.61D-14  0.00D+00  1.00D+00    6.62448D+00
        83    2.46464D-14  2.46D-14  0.00D+00  1.00D+00    6.70171D+00
        84    3.05917D-14  3.06D-14  0.00D+00  1.00D+00    6.70171D+00
        85    2.79765D-14  2.80D-14  0.00D+00  1.00D+00    6.97463D+00
        86    2.73158D-14  2.73D-14  0.00D+00  1.00D+00    6.97463D+00
        87    2.43743D-14  2.44D-14  0.00D+00  1.00D+00    6.98652D+00
        88    2.47394D-14  2.47D-14  0.00D+00  1.00D+00    7.04995D+00
        89    2.80201D-14  2.80D-14  0.00D+00  1.00D+00    7.04995D+00
        90    3.14737D-14  3.15D-14  0.00D+00  1.00D+00    7.13626D+00
        91    1.94066D-14  1.94D-14  0.00D+00  1.00D+00    7.16181D+00
        92    3.16323D-14  3.16D-14  0.00D+00  1.00D+00    7.16181D+00
        93    2.33402D-14  2.33D-14  0.00D+00  1.00D+00    7.21853D+00
        94    3.01774D-14  3.02D-14  0.00D+00  1.00D+00    7.21853D+00
        95    2.18366D-14  2.18D-14  0.00D+00  1.00D+00    7.23622D+00
        96    2.22343D-14  2.22D-14  0.00D+00  1.00D+00    7.23951D+00
        97    1.97610D-14  1.98D-14  0.00D+00  1.00D+00    7.32631D+00
        98    2.86888D-14  2.87D-14  0.00D+00  1.00D+00    7.32631D+00
        99    2.17795D-14  2.18D-14  0.00D+00  1.00D+00    7.32728D+00
       100    1.60301D-14  1.60D-14  0.00D+00  1.00D+00    7.40145D+00
       101    3.07874D-14  3.08D-14  0.00D+00  1.00D+00    7.40145D+00
       102    1.66896D-14  1.67D-14  0.00D+00  1.00D+00    7.48614D+00
       103    2.62721D-14  2.63D-14  0.00D+00  1.00D+00    7.48614D+00
       104    1.38846D-14  1.39D-14  0.00D+00  1.00D+00    7.50938D+00
       105    9.68056D-16  9.68D-16  0.00D+00  1.00D+00   -1.38020D-01

 *** THE REQUESTED  104 SOLUTION VECTORS CONVERGED

 Convergence of RSP solution vectors, threshold = 1.00D-03
 ---------------------------------------------------------------
 (dimension of paired reduced space:  208)
 RSP solution vector no.    1; norm of residual   5.40D-15
 RSP solution vector no.    2; norm of residual   1.22D-14
 RSP solution vector no.    3; norm of residual   4.78D-15
 RSP solution vector no.    4; norm of residual   7.60D-15
 RSP solution vector no.    5; norm of residual   7.98D-15
 RSP solution vector no.    6; norm of residual   7.91D-15
 RSP solution vector no.    7; norm of residual   1.13D-14
 RSP solution vector no.    8; norm of residual   5.60D-15
 RSP solution vector no.    9; norm of residual   7.99D-15
 RSP solution vector no.   10; norm of residual   1.20D-14
 RSP solution vector no.   11; norm of residual   9.41D-15
 RSP solution vector no.   12; norm of residual   9.43D-15
 RSP solution vector no.   13; norm of residual   1.02D-14
 RSP solution vector no.   14; norm of residual   9.35D-15
 RSP solution vector no.   15; norm of residual   8.21D-15
 RSP solution vector no.   16; norm of residual   9.14D-15
 RSP solution vector no.   17; norm of residual   1.09D-14
 RSP solution vector no.   18; norm of residual   9.76D-15
 RSP solution vector no.   19; norm of residual   8.85D-15
 RSP solution vector no.   20; norm of residual   7.75D-15
 RSP solution vector no.   21; norm of residual   1.40D-14
 RSP solution vector no.   22; norm of residual   7.39D-15
 RSP solution vector no.   23; norm of residual   9.47D-15
 RSP solution vector no.   24; norm of residual   1.47D-14
 RSP solution vector no.   25; norm of residual   1.64D-14
 RSP solution vector no.   26; norm of residual   9.80D-15
 RSP solution vector no.   27; norm of residual   8.17D-15
 RSP solution vector no.   28; norm of residual   1.06D-14
 RSP solution vector no.   29; norm of residual   1.10D-14
 RSP solution vector no.   30; norm of residual   8.67D-15
 RSP solution vector no.   31; norm of residual   1.13D-14
 RSP solution vector no.   32; norm of residual   1.28D-14
 RSP solution vector no.   33; norm of residual   1.19D-14
 RSP solution vector no.   34; norm of residual   2.10D-14
 RSP solution vector no.   35; norm of residual   1.04D-14
 RSP solution vector no.   36; norm of residual   1.25D-14
 RSP solution vector no.   37; norm of residual   2.08D-14
 RSP solution vector no.   38; norm of residual   1.02D-14
 RSP solution vector no.   39; norm of residual   1.22D-14
 RSP solution vector no.   40; norm of residual   1.58D-14
 RSP solution vector no.   41; norm of residual   1.11D-14
 RSP solution vector no.   42; norm of residual   1.02D-14
 RSP solution vector no.   43; norm of residual   1.10D-14
 RSP solution vector no.   44; norm of residual   8.21D-15
 RSP solution vector no.   45; norm of residual   1.00D-14
 RSP solution vector no.   46; norm of residual   9.45D-15
 RSP solution vector no.   47; norm of residual   1.37D-14
 RSP solution vector no.   48; norm of residual   1.36D-14
 RSP solution vector no.   49; norm of residual   1.28D-14
 RSP solution vector no.   50; norm of residual   1.16D-14
 RSP solution vector no.   51; norm of residual   1.09D-14
 RSP solution vector no.   52; norm of residual   1.65D-14
 RSP solution vector no.   53; norm of residual   1.30D-14
 RSP solution vector no.   54; norm of residual   7.17D-15
 RSP solution vector no.   55; norm of residual   1.67D-14
 RSP solution vector no.   56; norm of residual   1.90D-14
 RSP solution vector no.   57; norm of residual   1.81D-14
 RSP solution vector no.   58; norm of residual   2.88D-14
 RSP solution vector no.   59; norm of residual   1.77D-14
 RSP solution vector no.   60; norm of residual   2.73D-14
 RSP solution vector no.   61; norm of residual   3.03D-14
 RSP solution vector no.   62; norm of residual   1.64D-14
 RSP solution vector no.   63; norm of residual   2.01D-14
 RSP solution vector no.   64; norm of residual   2.00D-14
 RSP solution vector no.   65; norm of residual   2.11D-14
 RSP solution vector no.   66; norm of residual   2.06D-14
 RSP solution vector no.   67; norm of residual   2.62D-14
 RSP solution vector no.   68; norm of residual   2.19D-14
 RSP solution vector no.   69; norm of residual   2.53D-14
 RSP solution vector no.   70; norm of residual   2.13D-14
 RSP solution vector no.   71; norm of residual   1.74D-14
 RSP solution vector no.   72; norm of residual   1.41D-14
 RSP solution vector no.   73; norm of residual   3.17D-14
 RSP solution vector no.   74; norm of residual   1.65D-14
 RSP solution vector no.   75; norm of residual   2.66D-14
 RSP solution vector no.   76; norm of residual   3.48D-14
 RSP solution vector no.   77; norm of residual   2.44D-14
 RSP solution vector no.   78; norm of residual   2.45D-14
 RSP solution vector no.   79; norm of residual   1.55D-14
 RSP solution vector no.   80; norm of residual   2.39D-14
 RSP solution vector no.   81; norm of residual   2.20D-14
 RSP solution vector no.   82; norm of residual   1.61D-14
 RSP solution vector no.   83; norm of residual   2.46D-14
 RSP solution vector no.   84; norm of residual   3.06D-14
 RSP solution vector no.   85; norm of residual   2.80D-14
 RSP solution vector no.   86; norm of residual   2.73D-14
 RSP solution vector no.   87; norm of residual   2.44D-14
 RSP solution vector no.   88; norm of residual   2.47D-14
 RSP solution vector no.   89; norm of residual   2.80D-14
 RSP solution vector no.   90; norm of residual   3.15D-14
 RSP solution vector no.   91; norm of residual   1.94D-14
 RSP solution vector no.   92; norm of residual   3.16D-14
 RSP solution vector no.   93; norm of residual   2.33D-14
 RSP solution vector no.   94; norm of residual   3.02D-14
 RSP solution vector no.   95; norm of residual   2.18D-14
 RSP solution vector no.   96; norm of residual   2.22D-14
 RSP solution vector no.   97; norm of residual   1.98D-14
 RSP solution vector no.   98; norm of residual   2.87D-14
 RSP solution vector no.   99; norm of residual   2.18D-14
 RSP solution vector no.  100; norm of residual   1.60D-14
 RSP solution vector no.  101; norm of residual   3.08D-14
 RSP solution vector no.  102; norm of residual   1.67D-14
 RSP solution vector no.  103; norm of residual   2.63D-14
 RSP solution vector no.  104; norm of residual   1.39D-14

 *** RSPCTL MICROITERATIONS CONVERGED

@ Singlet transition operator label: XDIPLEN 
@ STATE NO:    1 *TRANSITION MOMENT:  0.82115822     *ENERGY(eV):   3.7557257    
@ STATE NO:    2 *TRANSITION MOMENT:  7.54432641E-15 *ENERGY(eV):   4.9407540    
@ STATE NO:    3 *TRANSITION MOMENT: -6.61717127E-16 *ENERGY(eV):   4.9407540    
@ STATE NO:    4 *TRANSITION MOMENT: -0.30298088     *ENERGY(eV):   6.4433745    
@ STATE NO:    5 *TRANSITION MOMENT:  6.04346263E-03 *ENERGY(eV):   16.339519    
@ STATE NO:    6 *TRANSITION MOMENT: -3.09872478E-16 *ENERGY(eV):   18.207397    
@ STATE NO:    7 *TRANSITION MOMENT: -1.48527849E-16 *ENERGY(eV):   18.207397    
@ STATE NO:    8 *TRANSITION MOMENT:  2.98873131E-02 *ENERGY(eV):   18.787022    
@ STATE NO:    9 *TRANSITION MOMENT:  6.08540995E-15 *ENERGY(eV):   18.808862    
@ STATE NO:   10 *TRANSITION MOMENT: -6.04724604E-15 *ENERGY(eV):   18.808862    
@ STATE NO:   11 *TRANSITION MOMENT: -3.59995693E-02 *ENERGY(eV):   19.608715    
@ STATE NO:   12 *TRANSITION MOMENT:  3.44706114E-16 *ENERGY(eV):   19.833753    
@ STATE NO:   13 *TRANSITION MOMENT: -7.68172195E-17 *ENERGY(eV):   19.833753    
@ STATE NO:   14 *TRANSITION MOMENT:  2.96780833E-02 *ENERGY(eV):   21.329450    
@ STATE NO:   15 *TRANSITION MOMENT:  0.10386074     *ENERGY(eV):   60.148636    

@ Singlet transition operator label: YDIPLEN 
@ STATE NO:    1 *TRANSITION MOMENT:  3.51264448E-15 *ENERGY(eV):   3.7557257    
@ STATE NO:    2 *TRANSITION MOMENT:  -1.2743301     *ENERGY(eV):   4.9407540    
@ STATE NO:    3 *TRANSITION MOMENT:  0.10217990     *ENERGY(eV):   4.9407540    
@ STATE NO:    4 *TRANSITION MOMENT: -2.73848645E-15 *ENERGY(eV):   6.4433745    
@ STATE NO:    5 *TRANSITION MOMENT:  3.14802470E-16 *ENERGY(eV):   16.339519    
@ STATE NO:    6 *TRANSITION MOMENT:  3.54567828E-02 *ENERGY(eV):   18.207397    
@ STATE NO:    7 *TRANSITION MOMENT:  4.03443218E-02 *ENERGY(eV):   18.207397    
@ STATE NO:    8 *TRANSITION MOMENT: -2.47428215E-15 *ENERGY(eV):   18.787022    
@ STATE NO:    9 *TRANSITION MOMENT: -9.74261894E-16 *ENERGY(eV):   18.808862    
@ STATE NO:   10 *TRANSITION MOMENT: -9.07489327E-16 *ENERGY(eV):   18.808862    
@ STATE NO:   11 *TRANSITION MOMENT: -5.81988502E-15 *ENERGY(eV):   19.608715    
@ STATE NO:   12 *TRANSITION MOMENT: -2.34403158E-02 *ENERGY(eV):   19.833753    
@ STATE NO:   13 *TRANSITION MOMENT: -1.00082792E-02 *ENERGY(eV):   19.833753    
@ STATE NO:   14 *TRANSITION MOMENT: -1.55839628E-15 *ENERGY(eV):   21.329450    
@ STATE NO:   15 *TRANSITION MOMENT:  8.30886569E-16 *ENERGY(eV):   60.148636    

@ Singlet transition operator label: ZDIPLEN 
@ STATE NO:    1 *TRANSITION MOMENT: -9.40763767E-15 *ENERGY(eV):   3.7557257    
@ STATE NO:    2 *TRANSITION MOMENT: -8.95345662E-02 *ENERGY(eV):   4.9407540    
@ STATE NO:    3 *TRANSITION MOMENT:  -1.2733786     *ENERGY(eV):   4.9407540    
@ STATE NO:    4 *TRANSITION MOMENT: -1.52186837E-15 *ENERGY(eV):   6.4433745    
@ STATE NO:    5 *TRANSITION MOMENT: -1.65130456E-15 *ENERGY(eV):   16.339519    
@ STATE NO:    6 *TRANSITION MOMENT: -3.97536325E-02 *ENERGY(eV):   18.207397    
@ STATE NO:    7 *TRANSITION MOMENT:  3.47831920E-02 *ENERGY(eV):   18.207397    
@ STATE NO:    8 *TRANSITION MOMENT:  4.65442865E-16 *ENERGY(eV):   18.787022    
@ STATE NO:    9 *TRANSITION MOMENT:  2.64350569E-15 *ENERGY(eV):   18.808862    
@ STATE NO:   10 *TRANSITION MOMENT: -1.01124902E-15 *ENERGY(eV):   18.808862    
@ STATE NO:   11 *TRANSITION MOMENT:  6.41829930E-15 *ENERGY(eV):   19.608715    
@ STATE NO:   12 *TRANSITION MOMENT:  8.93585633E-03 *ENERGY(eV):   19.833753    
@ STATE NO:   13 *TRANSITION MOMENT: -2.30028754E-02 *ENERGY(eV):   19.833753    
@ STATE NO:   14 *TRANSITION MOMENT:  1.98144542E-15 *ENERGY(eV):   21.329450    
@ STATE NO:   15 *TRANSITION MOMENT:  8.63574008E-16 *ENERGY(eV):   60.148636    


 **************************************************************************************
 *** @ Excit. operator sym 1 & ref. state sym 1 => excited state symmetry 1  ( A  ) ***
 **************************************************************************************



 @ Excited state no:    1 in symmetry 1  ( A  ) - singlet excitation
 -------------------------------------------------------------------

@ Excitation energy :  0.13802038     au
@                       3.7557257     eV;   30291.973     cm-1;   362.37246     kJ / mol

@ Total energy :       -7.8469210     au

@ Operator label: XDIPLEN ; Transition moment :  0.82115822     au
@ Oscillator strength (LENGTH)   :  6.20448383E-02  (X-polarization)

@ Operator label: YDIPLEN ; Transition moment :  3.51264448E-15 au
@ Oscillator strength (LENGTH)   :  1.13532543E-30  (Y-polarization)

@ Operator label: ZDIPLEN ; Transition moment : -9.40763767E-15 au
@ Oscillator strength (LENGTH)   :  8.14353817E-30  (Z-polarization)
@ Total oscillator strength (LENGTH)   :  6.20448383E-02

 Eigenvector for state no.  1

      Index(conf)                         Z operator          Y operator
      ----------                      --------------      --------------
           2                            0.1326304543        0.0000000000
          16                            0.9634759537        0.0000000000
          22                            0.1664890671        0.0000000000
          23                            0.1562810541        0.0000000000

      101 elements with absolute value ≤ 1.00D-01 are not printed.

 Printout of coefficients in interval  3.1623E-01 to  1.0000E+00
 ===============================================================

  Coefficient of CSF no.        16 is      0.96347595    9.63475954E-01
  Orbital          1   2   3
  Spin coupling    2   1  -1

 Printout of coefficients in interval  1.0000E-01 to  3.1623E-01
 ===============================================================

  Coefficient of CSF no.         2 is      0.13263045    1.32630454E-01
  Orbital          1   3
  Spin coupling    2   2

  Coefficient of CSF no.        22 is      0.16648907    1.66489067E-01
  Orbital          1   2   6
  Spin coupling    2   1  -1

  Coefficient of CSF no.        23 is      0.15628105    1.56281054E-01
  Orbital          1   3   6
  Spin coupling    2   1  -1

 Norm of printed CI vector ..      0.99801913

 Magnitude of CI coefficients
 ============================
 ( Ranges are relative to norm of vector :  1.00E+00 )

  10- 1 to 10- 0         4    0.99801913E+00      0.9980191281
  10- 2 to 10- 1         2    0.17969708E-02      0.9998160989
  10- 3 to 10- 2         8    0.18342034E-03      0.9999995193
  10- 4 to 10- 3         9    0.47234151E-06      0.9999999916
  10- 5 to 10- 4         6    0.78690578E-08      0.9999999995
  10- 6 to 10- 5        11    0.53524742E-09      1.0000000000
  10- 7 to 10- 6         1    0.39574392E-12      1.0000000000
  Number of coefficients less than 10^-11 times norm is           64


 @ Excited state no:    2 in symmetry 1  ( A  ) - singlet excitation
 -------------------------------------------------------------------

@ Excitation energy :  0.18156937     au
@                       4.9407540     eV;   39849.871     cm-1;   476.71032     kJ / mol

@ Total energy :       -7.8033720     au

@ Operator label: XDIPLEN ; Transition moment :  7.54432641E-15 au
@ Oscillator strength (LENGTH)   :  6.88957255E-30  (X-polarization)

@ Operator label: YDIPLEN ; Transition moment :  -1.2743301     au
@ Oscillator strength (LENGTH)   :  0.19656910      (Y-polarization)

@ Operator label: ZDIPLEN ; Transition moment : -8.95345662E-02 au
@ Oscillator strength (LENGTH)   :  9.70359820E-04  (Z-polarization)
@ Total oscillator strength (LENGTH)   :  0.19753946    

 Eigenvector for state no.  2

      Index(conf)                         Z operator          Y operator
      ----------                      --------------      --------------
          17                           -0.1005232461        0.0000000000
          19                           -0.9767377560        0.0000000000
          20                           -0.1058921117        0.0000000000
          25                           -0.1558081960        0.0000000000

      101 elements with absolute value ≤ 1.00D-01 are not printed.

 Printout of coefficients in interval  3.1623E-01 to  1.0000E+00
 ===============================================================

  Coefficient of CSF no.        19 is     -0.97673776   -9.76737756E-01
  Orbital          1   2   5
  Spin coupling    2   1  -1

 Printout of coefficients in interval  1.0000E-01 to  3.1623E-01
 ===============================================================

  Coefficient of CSF no.        17 is     -0.10052325   -1.00523246E-01
  Orbital          1   2   4
  Spin coupling    2   1  -1

  Coefficient of CSF no.        20 is     -0.10589211   -1.05892112E-01
  Orbital          1   3   5
  Spin coupling    2   1  -1

  Coefficient of CSF no.        25 is     -0.15580820   -1.55808196E-01
  Orbital          1   5   6
  Spin coupling    2   1  -1

 Printout of coefficients in interval  1.0000E-01 to  1.0000E-01
 ===============================================================
   ( no coefficients )

 Norm of printed CI vector ..      0.99961090

 Magnitude of CI coefficients
 ============================
 ( Ranges are relative to norm of vector :  1.00E+00 )

  10- 1 to 10- 0         4    0.99961090E+00      0.9996109002
  10- 2 to 10- 1         2    0.37590223E-03      0.9999868024
  10- 3 to 10- 2         4    0.11253154E-04      0.9999980556
  10- 4 to 10- 3        14    0.19094036E-05      0.9999999650
  10- 5 to 10- 4        15    0.34809617E-07      0.9999999998
  10- 6 to 10- 5         7    0.19936703E-09      1.0000000000
  10- 7 to 10- 6         2    0.33373234E-12      1.0000000000
  Number of coefficients less than 10^-11 times norm is           57


 @ Excited state no:    3 in symmetry 1  ( A  ) - singlet excitation
 -------------------------------------------------------------------

@ Excitation energy :  0.18156937     au
@                       4.9407540     eV;   39849.871     cm-1;   476.71032     kJ / mol

@ Total energy :       -7.8033720     au

@ Operator label: XDIPLEN ; Transition moment : -6.61717127E-16 au
@ Oscillator strength (LENGTH)   :  5.30024676E-32  (X-polarization)

@ Operator label: YDIPLEN ; Transition moment :  0.10217990     au
@ Oscillator strength (LENGTH)   :  1.26381145E-03  (Y-polarization)

@ Operator label: ZDIPLEN ; Transition moment :  -1.2733786     au
@ Oscillator strength (LENGTH)   :  0.19627565      (Z-polarization)
@ Total oscillator strength (LENGTH)   :  0.19753946    

 Eigenvector for state no.  3

      Index(conf)                         Z operator          Y operator
      ----------                      --------------      --------------
          17                            0.9776874848        0.0000000000
          18                            0.1059950757        0.0000000000
          24                            0.1559596957        0.0000000000

      102 elements with absolute value ≤ 1.00D-01 are not printed.

 Printout of coefficients in interval  3.1623E-01 to  1.0000E+00
 ===============================================================

  Coefficient of CSF no.        17 is      0.97768748    9.77687485E-01
  Orbital          1   2   4
  Spin coupling    2   1  -1

 Printout of coefficients in interval  1.0000E-01 to  3.1623E-01
 ===============================================================

  Coefficient of CSF no.        18 is      0.10599508    1.05995076E-01
  Orbital          1   3   4
  Spin coupling    2   1  -1

  Coefficient of CSF no.        24 is      0.15595970    1.55959696E-01
  Orbital          1   4   6
  Spin coupling    2   1  -1

 Printout of coefficients in interval  1.0000E-01 to  1.0000E-01
 ===============================================================
   ( no coefficients )

 Norm of printed CI vector ..      0.99143120

 Magnitude of CI coefficients
 ============================
 ( Ranges are relative to norm of vector :  1.00E+00 )

  10- 1 to 10- 0         3    0.99143120E+00      0.9914312007
  10- 2 to 10- 1         2    0.84586491E-02      0.9998898499
  10- 3 to 10- 2         5    0.10822762E-03      0.9999980775
  10- 4 to 10- 3        14    0.18909921E-05      0.9999999685
  10- 5 to 10- 4        14    0.31259842E-07      0.9999999997
  10- 6 to 10- 5         8    0.26609658E-09      1.0000000000
  10- 7 to 10- 6         2    0.27242903E-12      1.0000000000
  Number of coefficients less than 10^-11 times norm is           57


 @ Excited state no:    4 in symmetry 1  ( A  ) - singlet excitation
 -------------------------------------------------------------------

@ Excitation energy :  0.23678966     au
@                       6.4433745     eV;   51969.323     cm-1;   621.69116     kJ / mol

@ Total energy :       -7.7481517     au

@ Operator label: XDIPLEN ; Transition moment : -0.30298088     au
@ Oscillator strength (LENGTH)   :  1.44911186E-02  (X-polarization)

@ Operator label: YDIPLEN ; Transition moment : -2.73848645E-15 au
@ Oscillator strength (LENGTH)   :  1.18383908E-30  (Y-polarization)

@ Operator label: ZDIPLEN ; Transition moment : -1.52186837E-15 au
@ Oscillator strength (LENGTH)   :  3.65616394E-31  (Z-polarization)
@ Total oscillator strength (LENGTH)   :  1.44911186E-02

 Eigenvector for state no.  4

      Index(conf)                         Z operator          Y operator
      ----------                      --------------      --------------
          11                            0.1997956435        0.0000000000
          16                           -0.1798155110        0.0000000000
          22                            0.9604748520        0.0000000000

      102 elements with absolute value ≤ 1.00D-01 are not printed.

 Printout of coefficients in interval  3.1623E-01 to  1.0000E+00
 ===============================================================

  Coefficient of CSF no.        22 is      0.96047485    9.60474852E-01
  Orbital          1   2   6
  Spin coupling    2   1  -1

 Printout of coefficients in interval  1.0000E-01 to  3.1623E-01
 ===============================================================

  Coefficient of CSF no.        11 is      0.19979564    1.99795643E-01
  Orbital          1   6
  Spin coupling    2   2

  Coefficient of CSF no.        16 is     -0.17981551   -1.79815511E-01
  Orbital          1   2   3
  Spin coupling    2   1  -1

 Norm of printed CI vector ..      0.99476386

 Magnitude of CI coefficients
 ============================
 ( Ranges are relative to norm of vector :  1.00E+00 )

  10- 1 to 10- 0         3    0.99476386E+00      0.9947638584
  10- 2 to 10- 1         3    0.50592182E-02      0.9998230766
  10- 3 to 10- 2         5    0.17365200E-03      0.9999967286
  10- 4 to 10- 3        13    0.32628439E-05      0.9999999915
  10- 5 to 10- 4        10    0.82974141E-08      0.9999999998
  10- 6 to 10- 5         6    0.22001718E-09      1.0000000000
  10- 7 to 10- 6         1    0.41978208E-12      1.0000000000
  Number of coefficients less than 10^-11 times norm is           64


 @ Excited state no:    5 in symmetry 1  ( A  ) - singlet excitation
 -------------------------------------------------------------------

@ Excitation energy :  0.60046629     au
@                       16.339519     eV;   131787.12     cm-1;   1576.5240     kJ / mol

@ Total energy :       -7.3844750     au

@ Operator label: XDIPLEN ; Transition moment :  6.04346263E-03 au
@ Oscillator strength (LENGTH)   :  1.46207299E-05  (X-polarization)

@ Operator label: YDIPLEN ; Transition moment :  3.14802470E-16 au
@ Oscillator strength (LENGTH)   :  3.96710446E-32  (Y-polarization)

@ Operator label: ZDIPLEN ; Transition moment : -1.65130456E-15 au
@ Oscillator strength (LENGTH)   :  1.09157036E-30  (Z-polarization)
@ Total oscillator strength (LENGTH)   :  1.46207299E-05

 Eigenvector for state no.  5

      Index(conf)                         Z operator          Y operator
      ----------                      --------------      --------------
           2                           -0.5073711693        0.0000000000
           4                            0.2400839991        0.0000000000
           7                            0.2400839991        0.0000000000
          11                           -0.3123869329        0.0000000000
          16                            0.1676617802        0.0000000000
          22                            0.1244556897        0.0000000000
          23                           -0.6964905523        0.0000000000

       98 elements with absolute value ≤ 1.00D-01 are not printed.

 Printout of coefficients in interval  3.1623E-01 to  1.0000E+00
 ===============================================================

  Coefficient of CSF no.         2 is     -0.50737117   -5.07371169E-01
  Orbital          1   3
  Spin coupling    2   2

  Coefficient of CSF no.        23 is     -0.69649055   -6.96490552E-01
  Orbital          1   3   6
  Spin coupling    2   1  -1

 Printout of coefficients in interval  1.0000E-01 to  3.1623E-01
 ===============================================================

  Coefficient of CSF no.         4 is      0.24008400    2.40083999E-01
  Orbital          1   4
  Spin coupling    2   2

  Coefficient of CSF no.         7 is      0.24008400    2.40083999E-01
  Orbital          1   5
  Spin coupling    2   2

  Coefficient of CSF no.        11 is     -0.31238693   -3.12386933E-01
  Orbital          1   6
  Spin coupling    2   2

  Coefficient of CSF no.        16 is      0.16766178    1.67661780E-01
  Orbital          1   2   3
  Spin coupling    2   1  -1

  Coefficient of CSF no.        22 is      0.12445569    1.24455690E-01
  Orbital          1   2   6
  Spin coupling    2   1  -1

 Norm of printed CI vector ..      0.99899053

 Magnitude of CI coefficients
 ============================
 ( Ranges are relative to norm of vector :  1.00E+00 )

  10- 1 to 10- 0         7    0.99899053E+00      0.9989905332
  10- 2 to 10- 1         1    0.86854011E-03      0.9998590734
  10- 3 to 10- 2        14    0.13835034E-03      0.9999974237
  10- 4 to 10- 3        11    0.25651336E-05      0.9999999888
  10- 5 to 10- 4         8    0.11173944E-07      1.0000000000
  Number of coefficients less than 10^-11 times norm is           64


 @ Excited state no:    6 in symmetry 1  ( A  ) - singlet excitation
 -------------------------------------------------------------------

@ Excitation energy :  0.66910955     au
@                       18.207397     eV;   146852.57     cm-1;   1756.7469     kJ / mol

@ Total energy :       -7.3158318     au

@ Operator label: XDIPLEN ; Transition moment : -3.09872478E-16 au
@ Oscillator strength (LENGTH)   :  4.28323576E-32  (X-polarization)

@ Operator label: YDIPLEN ; Transition moment :  3.54567828E-02 au
@ Oscillator strength (LENGTH)   :  5.60795633E-04  (Y-polarization)

@ Operator label: ZDIPLEN ; Transition moment : -3.97536325E-02 au
@ Oscillator strength (LENGTH)   :  7.04952096E-04  (Z-polarization)
@ Total oscillator strength (LENGTH)   :  1.26574773E-03

 Eigenvector for state no.  6

      Index(conf)                         Z operator          Y operator
      ----------                      --------------      --------------
          17                            0.1457060138        0.0000000000
          18                           -0.7224410192        0.0000000000
          20                           -0.4485461085        0.0000000000
          24                           -0.4225213073        0.0000000000
          25                           -0.2623332329        0.0000000000

      100 elements with absolute value ≤ 1.00D-01 are not printed.

 Printout of coefficients in interval  3.1623E-01 to  1.0000E+00
 ===============================================================

  Coefficient of CSF no.        18 is     -0.72244102   -7.22441019E-01
  Orbital          1   3   4
  Spin coupling    2   1  -1

  Coefficient of CSF no.        20 is     -0.44854611   -4.48546109E-01
  Orbital          1   3   5
  Spin coupling    2   1  -1

  Coefficient of CSF no.        24 is     -0.42252131   -4.22521307E-01
  Orbital          1   4   6
  Spin coupling    2   1  -1

 Printout of coefficients in interval  1.0000E-01 to  3.1623E-01
 ===============================================================

  Coefficient of CSF no.        17 is      0.14570601    1.45706014E-01
  Orbital          1   2   4
  Spin coupling    2   1  -1

  Coefficient of CSF no.        25 is     -0.26233323   -2.62333233E-01
  Orbital          1   5   6
  Spin coupling    2   1  -1

 Norm of printed CI vector ..      0.99168786

 Magnitude of CI coefficients
 ============================
 ( Ranges are relative to norm of vector :  1.00E+00 )

  10- 1 to 10- 0         5    0.99168786E+00      0.9916878604
  10- 2 to 10- 1         1    0.81839760E-02      0.9998718364
  10- 3 to 10- 2        12    0.12363140E-03      0.9999954678
  10- 4 to 10- 3        17    0.45147898E-05      0.9999999825
  10- 5 to 10- 4        12    0.17383842E-07      0.9999999999
  10- 6 to 10- 5         1    0.68210107E-10      1.0000000000
  Number of coefficients less than 10^-11 times norm is           57


 @ Excited state no:    7 in symmetry 1  ( A  ) - singlet excitation
 -------------------------------------------------------------------

@ Excitation energy :  0.66910955     au
@                       18.207397     eV;   146852.57     cm-1;   1756.7469     kJ / mol

@ Total energy :       -7.3158318     au

@ Operator label: XDIPLEN ; Transition moment : -1.48527849E-16 au
@ Oscillator strength (LENGTH)   :  9.84060396E-33  (X-polarization)

@ Operator label: YDIPLEN ; Transition moment :  4.03443218E-02 au
@ Oscillator strength (LENGTH)   :  7.26057150E-04  (Y-polarization)

@ Operator label: ZDIPLEN ; Transition moment :  3.47831920E-02 au
@ Oscillator strength (LENGTH)   :  5.39690579E-04  (Z-polarization)
@ Total oscillator strength (LENGTH)   :  1.26574773E-03

 Eigenvector for state no.  7

      Index(conf)                         Z operator          Y operator
      ----------                      --------------      --------------
          18                            0.4363326657        0.0000000000
          19                            0.1472068510        0.0000000000
          20                           -0.7298824854        0.0000000000
          24                            0.2551901725        0.0000000000
          25                           -0.4268734661        0.0000000000

      100 elements with absolute value ≤ 1.00D-01 are not printed.

 Printout of coefficients in interval  3.1623E-01 to  1.0000E+00
 ===============================================================

  Coefficient of CSF no.        18 is      0.43633267    4.36332666E-01
  Orbital          1   3   4
  Spin coupling    2   1  -1

  Coefficient of CSF no.        20 is     -0.72988249   -7.29882485E-01
  Orbital          1   3   5
  Spin coupling    2   1  -1

  Coefficient of CSF no.        25 is     -0.42687347   -4.26873466E-01
  Orbital          1   5   6
  Spin coupling    2   1  -1

 Printout of coefficients in interval  1.0000E-01 to  3.1623E-01
 ===============================================================

  Coefficient of CSF no.        19 is      0.14720685    1.47206851E-01
  Orbital          1   2   5
  Spin coupling    2   1  -1

  Coefficient of CSF no.        24 is      0.25519017    2.55190173E-01
  Orbital          1   4   6
  Spin coupling    2   1  -1

 Norm of printed CI vector ..      0.99212747

 Magnitude of CI coefficients
 ============================
 ( Ranges are relative to norm of vector :  1.00E+00 )

  10- 1 to 10- 0         5    0.99212747E+00      0.9921274749
  10- 2 to 10- 1         1    0.77443615E-02      0.9998718364
  10- 3 to 10- 2        12    0.12370127E-03      0.9999955376
  10- 4 to 10- 3        17    0.44451846E-05      0.9999999828
  10- 5 to 10- 4        12    0.17120207E-07      0.9999999999
  10- 6 to 10- 5         1    0.64546099E-10      1.0000000000
  Number of coefficients less than 10^-11 times norm is           57


 @ Excited state no:    8 in symmetry 1  ( A  ) - singlet excitation
 -------------------------------------------------------------------

@ Excitation energy :  0.69041036     au
@                       18.787022     eV;   151527.56     cm-1;   1812.6721     kJ / mol

@ Total energy :       -7.2945310     au

@ Operator label: XDIPLEN ; Transition moment :  2.98873131E-02 au
@ Oscillator strength (LENGTH)   :  4.11140051E-04  (X-polarization)

@ Operator label: YDIPLEN ; Transition moment : -2.47428215E-15 au
@ Oscillator strength (LENGTH)   :  2.81782802E-30  (Y-polarization)

@ Operator label: ZDIPLEN ; Transition moment :  4.65442865E-16 au
@ Oscillator strength (LENGTH)   :  9.97123139E-32  (Z-polarization)
@ Total oscillator strength (LENGTH)   :  4.11140051E-04

 Eigenvector for state no.  8

      Index(conf)                         Z operator          Y operator
[...]
          44                            0.3285846261        0.0000000000
          45                           -0.4263587845        0.0000000000
          71                            0.4935208357        0.0000000000
          74                           -0.6403736722        0.0000000000
          92                           -0.1149988264        0.0000000000
          98                            0.1492180582        0.0000000000

       99 elements with absolute value ≤ 1.00D-01 are not printed.

 Printout of coefficients in interval  3.1623E-01 to  1.0000E+00
 ===============================================================

  Coefficient of CSF no.        44 is      0.32858463    3.28584626E-01
  Orbital          3   4   6
  Spin coupling    2   1  -1

  Coefficient of CSF no.        45 is     -0.42635878   -4.26358785E-01
  Orbital          3   5   6
  Spin coupling    2   1  -1

  Coefficient of CSF no.        71 is      0.49352084    4.93520836E-01
  Orbital          6   3   4
  Spin coupling    2   1  -1

  Coefficient of CSF no.        74 is     -0.64037367   -6.40373672E-01
  Orbital          6   3   5
  Spin coupling    2   1  -1

 Printout of coefficients in interval  1.0000E-01 to  3.1623E-01
 ===============================================================

  Coefficient of CSF no.        92 is     -0.11499883   -1.14998826E-01
  Orbital          2   3   4   6
  Spin coupling    1   1  -1  -1

  Coefficient of CSF no.        98 is      0.14921806    1.49218058E-01
  Orbital          2   3   5   6
  Spin coupling    1   1  -1  -1

 Norm of printed CI vector ..      0.97888168

 Magnitude of CI coefficients
 ============================
 ( Ranges are relative to norm of vector :  1.00E+00 )

  10- 1 to 10- 0         6    0.97888168E+00      0.9788816839
  10- 2 to 10- 1        13    0.20598254E-01      0.9994799376
  10- 3 to 10- 2        16    0.51757693E-03      0.9999975145
  10- 4 to 10- 3         7    0.24770906E-05      0.9999999916
  10- 5 to 10- 4         4    0.82422440E-08      0.9999999998
  10- 6 to 10- 5         2    0.15382540E-09      1.0000000000
  Number of coefficients less than 10^-11 times norm is           57


 @ Excited state no:   99 in symmetry 1  ( A  ) - singlet excitation
 -------------------------------------------------------------------

@ Excitation energy :   7.3272810     au
@                       199.38546     eV;   1608152.3     cm-1;   19237.773     kJ / mol

@ Total energy :      -0.65766035     au

@ Operator label: XDIPLEN ; Transition moment :  5.03267738E-07 au
@ Oscillator strength (LENGTH)   :  1.23722808E-12  (X-polarization)

@ Operator label: YDIPLEN ; Transition moment :  1.23883591E-16 au
@ Oscillator strength (LENGTH)   :  7.49685585E-32  (Y-polarization)

@ Operator label: ZDIPLEN ; Transition moment :  3.10495873E-16 au
@ Oscillator strength (LENGTH)   :  4.70937476E-31  (Z-polarization)
@ Total oscillator strength (LENGTH)   :  1.23722808E-12

 Eigenvector for state no. 99

      Index(conf)                         Z operator          Y operator
      ----------                      --------------      --------------
          10                            0.9899869883        0.0000000000

      104 elements with absolute value ≤ 1.00D-01 are not printed.

 Printout of coefficients in interval  3.1623E-01 to  1.0000E+00
 ===============================================================

  Coefficient of CSF no.        10 is      0.98998699    9.89986988E-01
  Orbital          4   5
  Spin coupling    2   2

 Printout of coefficients in interval  1.0000E-01 to  3.1623E-01
 ===============================================================
   ( no coefficients )

 Norm of printed CI vector ..      0.98007424

 Magnitude of CI coefficients
 ============================
 ( Ranges are relative to norm of vector :  1.00E+00 )

  10- 1 to 10- 0         1    0.98007424E+00      0.9800742370
  10- 2 to 10- 1         8    0.19622428E-01      0.9996966652
  10- 3 to 10- 2        11    0.30141793E-03      0.9999980831
  10- 4 to 10- 3         9    0.19074311E-05      0.9999999905
  10- 5 to 10- 4         6    0.93507379E-08      0.9999999999
  10- 6 to 10- 5         3    0.10245003E-09      1.0000000000
  10- 7 to 10- 6         3    0.14250707E-11      1.0000000000
  Number of coefficients less than 10^-11 times norm is           64


 @ Excited state no:  100 in symmetry 1  ( A  ) - singlet excitation
 -------------------------------------------------------------------

@ Excitation energy :   7.4014541     au
@                       201.40381     eV;   1624431.4     cm-1;   19432.515     kJ / mol

@ Total energy :      -0.58348723     au

@ Operator label: XDIPLEN ; Transition moment : -1.97958089E-18 au
@ Oscillator strength (LENGTH)   :  1.93362521E-35  (X-polarization)

@ Operator label: YDIPLEN ; Transition moment : -6.00543689E-07 au
@ Oscillator strength (LENGTH)   :  1.77956972E-12  (Y-polarization)

@ Operator label: ZDIPLEN ; Transition moment :  2.23387414E-06 au
@ Oscillator strength (LENGTH)   :  2.46231263E-11  (Z-polarization)
@ Total oscillator strength (LENGTH)   :  2.64026960E-11

 Eigenvector for state no.100

      Index(conf)                         Z operator          Y operator
      ----------                      --------------      --------------
          60                           -0.1152485587        0.0000000000
          61                           -0.4995451536        0.0000000000
          65                            0.8498539243        0.0000000000

      102 elements with absolute value ≤ 1.00D-01 are not printed.

 Printout of coefficients in interval  3.1623E-01 to  1.0000E+00
 ===============================================================

  Coefficient of CSF no.        61 is     -0.49954515   -4.99545154E-01
  Orbital          5   3   4
  Spin coupling    2   1  -1

  Coefficient of CSF no.        65 is      0.84985392    8.49853924E-01
  Orbital          5   4   6
  Spin coupling    2   1  -1

 Printout of coefficients in interval  1.0000E-01 to  3.1623E-01
 ===============================================================

  Coefficient of CSF no.        60 is     -0.11524856   -1.15248559E-01
  Orbital          5   2   4
  Spin coupling    2   1  -1

 Norm of printed CI vector ..      0.98507928

 Magnitude of CI coefficients
 ============================
 ( Ranges are relative to norm of vector :  1.00E+00 )

  10- 1 to 10- 0         3    0.98507928E+00      0.9850792833
  10- 2 to 10- 1         8    0.14759922E-01      0.9998392052
  10- 3 to 10- 2         9    0.15655629E-03      0.9999957614
  10- 4 to 10- 3        13    0.42017633E-05      0.9999999632
  10- 5 to 10- 4        12    0.36715643E-07      0.9999999999
  10- 6 to 10- 5         3    0.75405658E-10      1.0000000000
  Number of coefficients less than 10^-11 times norm is           57


 @ Excited state no:  101 in symmetry 1  ( A  ) - singlet excitation
 -------------------------------------------------------------------

@ Excitation energy :   7.4014541     au
@                       201.40381     eV;   1624431.4     cm-1;   19432.515     kJ / mol

@ Total energy :      -0.58348723     au

@ Operator label: XDIPLEN ; Transition moment : -4.94410054E-17 au
@ Oscillator strength (LENGTH)   :  1.20614738E-32  (X-polarization)

@ Operator label: YDIPLEN ; Transition moment : -2.13478816E-06 au
@ Oscillator strength (LENGTH)   :  2.24871990E-11  (Y-polarization)

@ Operator label: ZDIPLEN ; Transition moment : -8.90800700E-07 au
@ Oscillator strength (LENGTH)   :  3.91549696E-12  (Z-polarization)
@ Total oscillator strength (LENGTH)   :  2.64026960E-11

 Eigenvector for state no.101

      Index(conf)                         Z operator          Y operator
      ----------                      --------------      --------------
          50                           -0.1128607352        0.0000000000
          51                           -0.4891951270        0.0000000000
          55                            0.8322458849        0.0000000000
          61                            0.1107354987        0.0000000000
          65                           -0.1883893727        0.0000000000

      100 elements with absolute value ≤ 1.00D-01 are not printed.

 Printout of coefficients in interval  3.1623E-01 to  1.0000E+00
 ===============================================================

  Coefficient of CSF no.        51 is     -0.48919513   -4.89195127E-01
  Orbital          4   3   5
  Spin coupling    2   1  -1

  Coefficient of CSF no.        55 is      0.83224588    8.32245885E-01
  Orbital          4   5   6
  Spin coupling    2   1  -1

 Printout of coefficients in interval  1.0000E-01 to  3.1623E-01
 ===============================================================

  Coefficient of CSF no.        50 is     -0.11286074   -1.12860735E-01
  Orbital          4   2   5
  Spin coupling    2   1  -1

  Coefficient of CSF no.        61 is      0.11073550    1.10735499E-01
  Orbital          5   3   4
  Spin coupling    2   1  -1

  Coefficient of CSF no.        65 is     -0.18838937   -1.88389373E-01
  Orbital          5   4   6
  Spin coupling    2   1  -1

 Norm of printed CI vector ..      0.99243554

 Magnitude of CI coefficients
 ============================
 ( Ranges are relative to norm of vector :  1.00E+00 )

  10- 1 to 10- 0         5    0.99243554E+00      0.9924355371
  10- 2 to 10- 1         7    0.73507261E-02      0.9997862632
  10- 3 to 10- 2        10    0.20906178E-03      0.9999953250
  10- 4 to 10- 3        17    0.46606492E-05      0.9999999856
  10- 5 to 10- 4         8    0.14358927E-07      1.0000000000
  10- 6 to 10- 5         1    0.12978728E-10      1.0000000000
  Number of coefficients less than 10^-11 times norm is           57


 @ Excited state no:  102 in symmetry 1  ( A  ) - singlet excitation
 -------------------------------------------------------------------

@ Excitation energy :   7.4861447     au
@                       203.70836     eV;   1643018.8     cm-1;   19654.870     kJ / mol

@ Total energy :      -0.49879664     au

@ Operator label: XDIPLEN ; Transition moment : -9.05173289E-17 au
@ Oscillator strength (LENGTH)   :  4.08912529E-32  (X-polarization)

@ Operator label: YDIPLEN ; Transition moment :  4.06948016E-16 au
@ Oscillator strength (LENGTH)   :  8.26503749E-31  (Y-polarization)

@ Operator label: ZDIPLEN ; Transition moment :  1.86920660E-17 au
@ Oscillator strength (LENGTH)   :  1.74373935E-33  (Z-polarization)
@ Total oscillator strength (LENGTH)   :  8.69138741E-31

 Eigenvector for state no.102

      Index(conf)                         Z operator          Y operator
      ----------                      --------------      --------------
           6                            0.1958898740        0.0000000000
           9                           -0.1958898740        0.0000000000
          14                            0.5113841066        0.0000000000
          15                           -0.5113841066        0.0000000000
          54                           -0.4109638512        0.0000000000
          64                            0.4109638512        0.0000000000
          75                            0.1432969296        0.0000000000

       98 elements with absolute value ≤ 1.00D-01 are not printed.

 Printout of coefficients in interval  3.1623E-01 to  1.0000E+00
 ===============================================================

  Coefficient of CSF no.        14 is      0.51138411    5.11384107E-01
  Orbital          4   6
  Spin coupling    2   2

  Coefficient of CSF no.        15 is     -0.51138411   -5.11384107E-01
  Orbital          5   6
  Spin coupling    2   2

  Coefficient of CSF no.        54 is     -0.41096385   -4.10963851E-01
  Orbital          4   3   6
  Spin coupling    2   1  -1

  Coefficient of CSF no.        64 is      0.41096385    4.10963851E-01
  Orbital          5   3   6
  Spin coupling    2   1  -1

 Printout of coefficients in interval  1.0000E-01 to  3.1623E-01
 ===============================================================

  Coefficient of CSF no.         6 is      0.19588987    1.95889874E-01
  Orbital          3   4
  Spin coupling    2   2

  Coefficient of CSF no.         9 is     -0.19588987   -1.95889874E-01
  Orbital          3   5
  Spin coupling    2   2

  Coefficient of CSF no.        75 is      0.14329693    1.43296930E-01
  Orbital          6   4   5
  Spin coupling    2   1  -1

 Norm of printed CI vector ..      0.95808968

 Magnitude of CI coefficients
 ============================
 ( Ranges are relative to norm of vector :  1.00E+00 )

  10- 1 to 10- 0         7    0.95808968E+00      0.9580896785
  10- 2 to 10- 1        12    0.41898068E-01      0.9999877467
  10- 3 to 10- 2         3    0.11410139E-04      0.9999991568
  10- 4 to 10- 3         4    0.82733187E-06      0.9999999841
  10- 5 to 10- 4         7    0.15850256E-07      1.0000000000
  Number of coefficients less than 10^-11 times norm is           72


 @ Excited state no:  103 in symmetry 1  ( A  ) - singlet excitation
 -------------------------------------------------------------------

@ Excitation energy :   7.4861447     au
@                       203.70836     eV;   1643018.8     cm-1;   19654.870     kJ / mol

@ Total energy :      -0.49879664     au

@ Operator label: XDIPLEN ; Transition moment : -4.46428715E-18 au
@ Oscillator strength (LENGTH)   :  9.94652092E-35  (X-polarization)

@ Operator label: YDIPLEN ; Transition moment : -6.31686374E-17 au
@ Oscillator strength (LENGTH)   :  1.99145261E-32  (Y-polarization)

@ Operator label: ZDIPLEN ; Transition moment : -4.51765704E-18 au
@ Oscillator strength (LENGTH)   :  1.01857608E-34  (Z-polarization)
@ Total oscillator strength (LENGTH)   :  2.01158489E-32

 Eigenvector for state no.103

      Index(conf)                         Z operator          Y operator
      ----------                      --------------      --------------
          41                           -0.2800998131        0.0000000000
          75                           -0.7312199949        0.0000000000
         102                            0.1213566047        0.0000000000
         104                            0.5089030883        0.0000000000
         105                           -0.2938153350        0.0000000000

      100 elements with absolute value ≤ 1.00D-01 are not printed.

 Printout of coefficients in interval  3.1623E-01 to  1.0000E+00
 ===============================================================

  Coefficient of CSF no.        75 is     -0.73121999   -7.31219995E-01
  Orbital          6   4   5
  Spin coupling    2   1  -1

  Coefficient of CSF no.       104 is      0.50890309    5.08903088E-01
  Orbital          3   4   5   6
  Spin coupling    1   1  -1  -1

 Printout of coefficients in interval  1.0000E-01 to  3.1623E-01
 ===============================================================

  Coefficient of CSF no.        41 is     -0.28009981   -2.80099813E-01
  Orbital          3   4   5
  Spin coupling    2   1  -1

  Coefficient of CSF no.       102 is      0.12135660    1.21356605E-01
  Orbital          2   4   5   6
  Spin coupling    1   1  -1  -1

  Coefficient of CSF no.       105 is     -0.29381534   -2.93815335E-01
  Orbital          3   4   5   6
  Spin coupling    1  -1   1  -1

 Norm of printed CI vector ..      0.97317582

 Magnitude of CI coefficients
 ============================
 ( Ranges are relative to norm of vector :  1.00E+00 )

  10- 1 to 10- 0         5    0.97317582E+00      0.9731758162
  10- 2 to 10- 1        11    0.26728323E-01      0.9999041392
  10- 3 to 10- 2         5    0.95071115E-04      0.9999992103
  10- 4 to 10- 3         4    0.76874533E-06      0.9999999791
  10- 5 to 10- 4         4    0.20804866E-07      0.9999999999
  10- 6 to 10- 5         4    0.14473418E-09      1.0000000000
  Number of coefficients less than 10^-11 times norm is           72


 @ Excited state no:  104 in symmetry 1  ( A  ) - singlet excitation
 -------------------------------------------------------------------

@ Excitation energy :   7.5093814     au
@                       204.34066     eV;   1648118.7     cm-1;   19715.878     kJ / mol

@ Total energy :      -0.47555991     au

@ Operator label: XDIPLEN ; Transition moment :  4.16741874E-06 au
@ Oscillator strength (LENGTH)   :  8.69455154E-11  (X-polarization)

@ Operator label: YDIPLEN ; Transition moment :  4.06339052E-16 au
@ Oscillator strength (LENGTH)   :  8.26589780E-31  (Y-polarization)

@ Operator label: ZDIPLEN ; Transition moment : -7.92938062E-17 au
@ Oscillator strength (LENGTH)   :  3.14768624E-32  (Z-polarization)
@ Total oscillator strength (LENGTH)   :  8.69455154E-11

 Eigenvector for state no.104

      Index(conf)                         Z operator          Y operator
      ----------                      --------------      --------------
           6                            0.2024580335        0.0000000000
           9                            0.2024580335        0.0000000000
          13                            0.1046400198        0.0000000000
          14                            0.5173193037        0.0000000000
          15                            0.5173193037        0.0000000000
          54                           -0.4121246692        0.0000000000
          64                           -0.4121246692        0.0000000000

       98 elements with absolute value ≤ 1.00D-01 are not printed.

 Printout of coefficients in interval  3.1623E-01 to  1.0000E+00
 ===============================================================

  Coefficient of CSF no.        14 is      0.51731930    5.17319304E-01
  Orbital          4   6
  Spin coupling    2   2

  Coefficient of CSF no.        15 is      0.51731930    5.17319304E-01
  Orbital          5   6
  Spin coupling    2   2

  Coefficient of CSF no.        54 is     -0.41212467   -4.12124669E-01
  Orbital          4   3   6
  Spin coupling    2   1  -1

  Coefficient of CSF no.        64 is     -0.41212467   -4.12124669E-01
  Orbital          5   3   6
  Spin coupling    2   1  -1

 Printout of coefficients in interval  1.0000E-01 to  3.1623E-01
 ===============================================================

  Coefficient of CSF no.         6 is      0.20245803    2.02458033E-01
  Orbital          3   4
  Spin coupling    2   2

  Coefficient of CSF no.         9 is      0.20245803    2.02458033E-01
  Orbital          3   5
  Spin coupling    2   2

  Coefficient of CSF no.        13 is      0.10464002    1.04640020E-01
  Orbital          3   6
  Spin coupling    2   2

 Norm of printed CI vector ..      0.96786005

 Magnitude of CI coefficients
 ============================
 ( Ranges are relative to norm of vector :  1.00E+00 )

  10- 1 to 10- 0         7    0.96786005E+00      0.9678600542
  10- 2 to 10- 1         9    0.32032634E-01      0.9998926884
  10- 3 to 10- 2         7    0.10528385E-03      0.9999979722
  10- 4 to 10- 3         9    0.19920568E-05      0.9999999643
  10- 5 to 10- 4         8    0.35702475E-07      1.0000000000
  10- 6 to 10- 5         1    0.10813121E-10      1.0000000000
  Number of coefficients less than 10^-11 times norm is           64


 Time used in polarization propagator calculation is      0.10 CPU seconds for symmetry 1

  Total CPU  time used in RESPONSE:   0.12 seconds
  Total wall time used in RESPONSE:   0.30 seconds


                   .-------------------------------------------.
                   | End of Dynamic Property Section (RESPONS) |
                   `-------------------------------------------'

  Total CPU  time used in DALTON:   0.20 seconds
  Total wall time used in DALTON:   1.20 seconds

 NOTE:    1 warnings have been issued.
 Check output, result, and error files for "WARNING".

 
     Date and time (Linux)  : Tue Jul  7 16:09:42 2026
     Host name              : n-62-31-22                              
