

     ************************************************************************
     *************** Dalton - An Electronic Structure Program ***************
     ************************************************************************

    This is output from DALTON release Dalton2024.0-dev (2024)
         ( Web site: http://daltonprogram.org )

   ----------------------------------------------------------------------------

    NOTE:
     
    Dalton is an experimental code for the evaluation of molecular
    properties using (MC)SCF, DFT, CI, and CC wave functions.
    The authors accept no responsibility for the performance of
    the code or for the correctness of the results.
     
    The code (in whole or part) is provided under a licence and
    is not to be reproduced for further distribution without
    the written permission of the authors or their representatives.
     
    See the home page "http://daltonprogram.org" for further information.
     
    If results obtained with this code are published,
    the appropriate citations would be both of:
     
       K. Aidas, C. Angeli, K. L. Bak, V. Bakken,
       R. Bast, L. Boman, O. Christiansen, R. Cimiraglia,
       S. Coriani, P. Dahle, E. K. Dalskov, U. Ekstroem,
       T. Enevoldsen, J. J. Eriksen, P. Ettenhuber, B. Fernandez,
       L. Ferrighi, H. Fliegl, L. Frediani, K. Hald, A. Halkier,
       C. Haettig, H. Heiberg, T. Helgaker, A. C. Hennum,
       H. Hettema, E. Hjertenaes, S. Hoest, I.-M. Hoeyvik,
       M. F. Iozzi, B. Jansik, H. J. Aa. Jensen, D. Jonsson,
       P. Joergensen, J. Kauczor, S. Kirpekar,
       T. Kjaergaard, W. Klopper, S. Knecht, R. Kobayashi, H. Koch,
       J. Kongsted, A. Krapp, K. Kristensen, A. Ligabue,
       O. B. Lutnaes, J. I. Melo, K. V. Mikkelsen, R. H. Myhre,
       C. Neiss, C. B. Nielsen, P. Norman, J. Olsen,
       J. M. H. Olsen, A. Osted, M. J. Packer, F. Pawlowski,
       T. B. Pedersen, P. F. Provasi, S. Reine, Z. Rinkevicius,
       T. A. Ruden, K. Ruud, V. Rybkin, P. Salek, C. C. M. Samson,
       A. Sanchez de Meras, T. Saue, S. P. A. Sauer,
       B. Schimmelpfennig, K. Sneskov, A. H. Steindal,
       K. O. Sylvester-Hvid, P. R. Taylor, A. M. Teale,
       E. I. Tellgren, D. P. Tew, A. J. Thorvaldsen, L. Thoegersen,
       O. Vahtras, M. A. Watson, D. J. D. Wilson, M. Ziolkowski
       and H. Agren,
       "The Dalton quantum chemistry program system",
       WIREs Comput. Mol. Sci. 2014, 4:269-284 (doi: 10.1002/wcms.1172)
     
    and
     
       Dalton, a molecular electronic structure program,
       Release Dalton2024.0-dev (2024), see http://daltonprogram.org
   ----------------------------------------------------------------------------

    Authors in alphabetical order (Major contribution(s) in parenthesis):

  Kestutis Aidas,              Vilnius University,        Lithuania   (QM/MM)
  Celestino Angeli,            University of Ferrara,     Italy       (NEVPT2)
  Juan J. Aucar,               Northeast National UniversiArgentina   (LRESC, Relativistic Effects on EFG)
  Keld L. Bak,                 UNI-C,                     Denmark     (AOSOPPA, non-adiabatic coupling, magnetic properties)
  Vebjoern Bakken,             University of Oslo,        Norway      (DALTON; geometry optimizer, symmetry detection)
  Radovan Bast,                UiT The Arctic U. of NorwayNorway      (DALTON installation and execution frameworks)
  Pablo Baudin,                University of Valencia,    Spain       (Cholesky excitation energies)
  Linus Boman,                 NTNU,                      Norway      (Cholesky decomposition and subsystems)
  Bruno N. Cabral Tenorio,     Technical Univ. of Denmark,Denmark     (Lanczos-based CC methods)
  Ove Christiansen,            Aarhus University,         Denmark     (CC module)
  Renzo Cimiraglia,            University of Ferrara,     Italy       (NEVPT2)
  Sonia Coriani,               Technical Univ. of Denmark,Denmark     (CC and RESPONS modules)
  Janusz Cukras,               University of Warsaw,      Poland      (MChD in RESPONS)
  Paal Dahle,                  University of Oslo,        Norway      (Parallelization)
  Erik K. Dalskov,             UNI-C,                     Denmark     (SOPPA)
  Thomas Enevoldsen,           Univ. of Southern Denmark, Denmark     (SOPPA)
  Janus J. Eriksen,            Aarhus University,         Denmark     (Polarizable embedding, TDA)
  Rasmus Faber,                Technical Univ. of Denmark,Denmark     (Vib.avg. NMR w. SOPPA, parallel AO-SOPPA, CVS-CC and EOMCC)
  Tobias Fahleson,             KTH Stockholm,             Sweden      (Damped cubic response)
  Berta Fernandez,             U. of Santiago de CompostelSpain       (Doublet spin, ESR in RESPONS)
  Lara Ferrighi,               Aarhus University,         Denmark     (PCM Cubic response)
  Heike Fliegl,                University of Oslo,        Norway      (CCSD(R12))
  Luca Frediani,               UiT The Arctic U. of NorwayNorway      (PCM)
  Emmanuel Fromager,           Univ. Strasbourg,          France      (MC-srDFT)
  Bin Gao,                     UiT The Arctic U. of NorwayNorway      (Gen1Int library)
  Andre S. P. Gomes,           CNRS/Universite de Lille,  France      (Frozen density embedding)
  Christof Haettig,            Ruhr-University Bochum,    Germany     (CC module)
  Kasper Hald,                 Aarhus University,         Denmark     (CC module)
  Asger Halkier,               Aarhus University,         Denmark     (CC module)
  Frederik Beyer Hansen,       University of Copenhagen,  Denmark     (Parallel AO-SOPPA)
  Erik D. Hedegaard,           Univ. of Southern Denmark, Denmark     (Polarizable embedding, QM/MM, and MC-srDFT)
  Hanne Heiberg,               University of Oslo,        Norway      (Geometry analysis, selected one-electron integrals)
  Trygve Helgaker,             University of Oslo,        Norway      (DALTON; ABACUS, ERI, DFT modules, London, and much more)
  Alf Christian Hennum,        University of Oslo,        Norway      (Parity violation)
  Hinne Hettema,               University of Auckland,    New Zealand (Quadratic response in RESPONS; SIRIUS supersymmetry)
  Andreas E. Hillers-Bendtsen, University of Copenhagen,  Denmark     (MP3)
  Eirik Hjertenaes,            NTNU,                      Norway      (Cholesky decomposition)
  Nicolai Machholdt Hoeyer,    Aarhus University,         Denmark     (MP3)
  Pi A. B. Haase,              University of Copenhagen,  Denmark     (Triplet AO-SOPPA)
  Maria Francesca Iozzi,       University of Oslo,        Norway      (RPA)
  Christoph Jacob,             TU Braunschweig            Germany     (Frozen density embedding)
  Brano Jansik,                Technical Univ. of Ostrava Czech Rep.  (DFT cubic response)
  Hans Joergen Aa. Jensen,     Univ. of Southern Denmark, Denmark     (DALTON; SIRIUS, RESPONS, ABACUS, MC-srDFT, and much more)
  Dan Jonsson,                 UiT The Arctic U. of NorwayNorway      (Cubic response in RESPONS module)
  Poul Joergensen,             Aarhus University,         Denmark     (RESPONS, ABACUS, and CC modules)
  Maciej Kaminski,             University of Warsaw,      Poland      (CPPh in RESPONS)
  Joanna Kauczor,              Linkoeping University,     Sweden      (Complex polarization propagator (CPP) module)
  Sheela Kirpekar,             Univ. of Southern Denmark, Denmark     (Mass-velocity & Darwin integrals)
  Frederik Oersted Kjeldal,    Technical Univ. of Denmark,Denmark     (MP3)
  Erik Kjellgren,              Univ. of Southern Denmark, Denmark     (MC-srDFT)
  Wim Klopper,                 KIT Karlsruhe,             Germany     (R12 code in CC, SIRIUS, and ABACUS modules)
  Stefan Knecht,               ETH Zurich,                Switzerland (Parallel CI and MCSCF, MC-srDFT)
  Rika Kobayashi,              Australian National Univ., Australia   (DIIS in CC, London in MCSCF)
  Henrik Koch,                 NTNU,                      Norway      (CC module, Cholesky decomposition)
  Jacob Kongsted,              Univ. of Southern Denmark, Denmark     (Polarizable embedding, polarizable density embedding, QM/MM)
  Andrea Ligabue,              University of Modena,      Italy       (CTOCD, AOSOPPA)
  Nanna H. List,               Univ. of Southern Denmark, Denmark     (Polarizable embedding)
  Ola B. Lutnaes,              University of Oslo,        Norway      (DFT Hessian)
  Juan I. Melo,                University of Buenos Aires,Argentina   (LRESC, Relativistic Effects on NMR Shieldings)
  Kurt V. Mikkelsen,           University of Copenhagen,  Denmark     (MC-SCRF, QM/MM, and MP3)
  Rolf H. Myhre,               NTNU,                      Norway      (Subsystems and CC3)
  Christian Neiss,             Univ. Erlangen-Nuernberg,  Germany     (CCSD(R12))
  Christian B. Nielsen,        University of Copenhagen,  Denmark     (QM/MM)
  Patrick Norman,              KTH Stockholm,             Sweden      (Cubic response and complex frequency response in RESPONS)
  Jeppe Olsen,                 Aarhus University,         Denmark     (SIRIUS CI/density modules)
  Jogvan Magnus H. Olsen,      Aarhus University,         Denmark     (Polarizable embedding and polarizable density embedding)
  Anders Osted,                Copenhagen University,     Denmark     (QM/MM)
  Martin J. Packer,            University of Sheffield,   UK          (SOPPA)
  Filip Pawlowski,             Kazimierz Wielki UniversityPoland      (CC3)
  Morten N. Pedersen,          Univ. of Southern Denmark, Denmark     (Polarizable embedding)
  Thomas B. Pedersen,          University of Oslo,        Norway      (Cholesky decomposition)
  Patricio F. Provasi,         University of Northeastern,Argentina   (Analysis of coupling constants in localized orbitals)
  Peter Reinholdt,             Univ. of Southern Denmark, Denmark     (Polarizable embedding and polarizable density embedding)
  Zilvinas Rinkevicius,        KTH Stockholm,             Sweden      (open-shell DFT, ESR)
  Elias Rudberg,               KTH Stockholm,             Sweden      (DFT grid and basis info)
  Torgeir A. Ruden,            University of Oslo,        Norway      (Numerical derivatives in ABACUS)
  Kenneth Ruud,                UiT The Arctic U. of NorwayNorway      (DALTON; ABACUS magnetic properties and much more)
  Pawel Salek,                 KTH Stockholm,             Sweden      (DALTON; DFT code)
  Claire C. M. Samson,         University of Karlsruhe    Germany     (Boys localization, r12 integrals in ERI)
  Alfredo Sanchez de Meras,    University of Valencia,    Spain       (CC module, Cholesky decomposition)
  Trond Saue,                  Paul Sabatier University,  France      (direct Fock matrix construction)
  Stephan P. A. Sauer,         University of Copenhagen,  Denmark     (SOPPA(CCSD), SOPPA prop., AOSOPPA, vibrational g-factors)
  Bernd Schimmelpfennig,       Forschungszentrum KarlsruheGermany     (AMFI module)
  Anna K. Schnack-Petersen,    University of Copenhagen,  Denmark     (RPA(D) and HRPA(D) properties in AOSOPPA)
  Kristian Sneskov,            Aarhus University,         Denmark     (Polarizable embedding, QM/MM)
  Arnfinn H. Steindal,         UiT The Arctic U. of NorwayNorway      (parallel QM/MM, polarizable embedding)
  Casper Steinmann,            Aalborg University,        Denmark     (QFIT, polarizable embedding)
  K. O. Sylvester-Hvid,        University of Copenhagen,  Denmark     (MC-SCRF)
  Peter R. Taylor,             VLSCI/Univ. of Melbourne,  Australia   (Symmetry handling ABACUS, integral transformation)
  Andrew M. Teale,             University of Nottingham,  England     (DFT-AC, DFT-D)
  David P. Tew,                University of Bristol,     England     (CCSD(R12))
  Julien Toulouse,             Sorbonne Univ.,            France      (MC-srDFT)
  Olav Vahtras,                KTH Stockholm,             Sweden      (Triplet response, spin-orbit, ESR, TDDFT, open-shell DFT)
  Lucas Visscher,              Vrije Universiteit AmsterdaNetherlands (Frozen density embedding)
  David J. Wilson,             La Trobe University,       Australia   (DFT Hessian and DFT magnetizabilities)
  Luna Zamok,                  University of Copenhagen,  Denmark     (Block Lanczos RPA solver in SOPPA module)
  Hans Agren,                  KTH Stockholm,             Sweden      (SIRIUS module, RESPONS, MC-SCRF solvation)
 --------------------------------------------------------------------------------

     Date and time (Linux)  : Tue Jul  7 15:26:58 2026
     Host name              : n-62-31-22                              

 * Work memory size             :   512000000 =  3.815 gigabytes.

 * Directories for basis set searches:
   1) /work3/jochar/DaltonTests
   2) /zhome/d7/7/119775/My_Codes/Dalton_Release/dalton/build_omp_nov24/basis


Compilation information
-----------------------

 Who compiled             | soco
 Host                     | hpclogin1
 System                   | Linux-6.1.112-1.el9.elrepo.x86_64
 CMake generator          | Unix Makefiles
 Processor                | x86_64
 64-bit integers          | OFF
 MPI                      | OFF
 Fortran compiler         | /appl/intel/2023.2.0.49397/compiler/2023.2.0/linux
                          | /bin/intel64/ifort
 Fortran compiler version | ifort (IFORT) 2021.10.0 20230609
 C compiler               | /appl/intel/2023.2.0.49397/compiler/2023.2.0/linux
                          | /bin/intel64/icc
 C compiler version       | icc (ICC) 2021.10.0 20230609
 C++ compiler             | /appl/intel/2023.2.0.49397/compiler/2023.2.0/linux
                          | /bin/intel64/icpc
 C++ compiler version     | icpc (ICC) 2021.10.0 20230609
 Static linking           | OFF
 Last Git revision        | a531ac4fbf115ebda1c90140ce3fd6aa236a2033
 Git branch               | master
 Configuration time       | 2024-11-14 11:23:30.470039

 * Sequential calculation.


   Content of the .dal input file
 ----------------------------------

**DALTON INPUT
.RUN WAVE FUNCTIONS   !tipo di calcolo
.RUN RESPONSE
**INTEGRALS
.DIPLEN               !integrali dell'operatore dipolo elettrico
**WAVE FUNCTION
.HF
.CI
!*PRINT
!.PRINTL
!   0 11
*SCF INP              !parte da Hartree-Fock
.DOUBLY OCCUPIED
5
.THRESH               !soglia di convergenza
 1.0D-10
*CONFIGURATION INPUT
.SPIN MULTIPLICITY
1
.SYMMETRY
1
.INACTIVE ORBITALS !the inner electrons are kept frozen
3
.CAS SPACE
4
.ELECTRONS
4
**RESPONS
*LINEAR
.THCLR
1.0d-9
.DIPLEN
.SINGLE RESIDUE
.ROOTS
300
**END OF INPUT


   Content of the .mol file
 ----------------------------

BASIS
cc-pVDZ
test VQE
dalton test
Atomtypes=2 Angstrom Nosymmetry
Charge=8.0 Atoms=1
O     0.1035000000000000  0.0000000000000000  0.0
Charge=1.0 Atoms=2
H    -0.4640000000000000  0.7956000000000000  0.0
H    -0.4640000000000000  -0.7956000000000000  0.0


       *******************************************************************
       *********** Output from DALTON general input processing ***********
       *******************************************************************

 --------------------------------------------------------------------------------
   Overall default print level:    0
   Print level for DALTON.STAT:    1

    HERMIT 1- and 2-electron integral sections will be executed
    "Old" integral transformation used (limited to max 255 basis functions)
    Wave function sections will be executed (SIRIUS module)
    Dynamic molecular response properties section will be executed (RESPONSE module)
 --------------------------------------------------------------------------------


   ****************************************************************************
   *************** Output of molecule and basis set information ***************
   ****************************************************************************


    The two title cards from your ".mol" input:
    --------------------------------------------------------------------------------
 1: test VQE
 2: dalton test
    --------------------------------------------------------------------------------

  Coordinates are entered in Angstrom and converted to atomic units.
          - Conversion factor : 1 bohr = 0.52917721 A

  Atomic type no.    1
  --------------------
  Nuclear charge:   8.00000
  Number of symmetry independent centers:    1
  Number of basis sets to read;    2
  Basis set file used for this atomic type with Z =   8 :
     "/zhome/d7/7/119775/My_Codes/Dalton_Release/dalton/build_omp_nov24/basis/cc-pVDZ"

  Atomic type no.    2
  --------------------
  Nuclear charge:   1.00000
  Number of symmetry independent centers:    2
  Number of basis sets to read;    2
  Basis set file used for this atomic type with Z =   1 :
     "/zhome/d7/7/119775/My_Codes/Dalton_Release/dalton/build_omp_nov24/basis/cc-pVDZ"


                         SYMGRP: Point group information
                         -------------------------------

@    Point group: C1 


                                 Isotopic Masses
                                 ---------------

                           O          15.994915
                           H           1.007825
                           H           1.007825

                       Total mass:    18.010565 amu
                       Natural abundance:  99.730 %

 Center-of-mass coordinates (a.u.):    0.075567    0.000000    0.000000
 Center-of-mass coordinates (Angs):    0.039988    0.000000    0.000000


  Atoms and basis sets
  --------------------

  Number of atom types :    2
  Total number of atoms:    3

  Basis set used is "cc-pVDZ" from the basis set library.

  label    atoms   charge   prim   cont     basis
  ----------------------------------------------------------------------
  O           1    8.0000    26    14      [9s4p1d|3s2p1d]                                    
  H           2    1.0000     7     5      [4s1p|2s1p]                                        
  ----------------------------------------------------------------------
  total:      3   10.0000    40    24
  ----------------------------------------------------------------------
  Spherical harmonic basis used.

  Threshold for neglecting AO integrals:  1.00D-12


  Cartesian Coordinates (a.u.)
  ----------------------------

  Total number of coordinates:    9
  O       :     1  x   0.1955866539    2  y   0.0000000000    3  z   0.0000000000
  H       :     4  x  -0.8768329220    5  y   1.5034661050    6  z   0.0000000000
  H       :     7  x  -0.8768329220    8  y  -1.5034661050    9  z   0.0000000000


   Interatomic separations (in Angstrom):
   --------------------------------------

            O           H           H     
            ------      ------      ------
 O     :    0.000000
 H     :    0.977259    0.000000
 H     :    0.977259    1.591200    0.000000


  Max    interatomic separation is    1.5912 Angstrom (    3.0069 Bohr)
  between atoms    3 and    2, "H     " and "H     ".

  Min HX interatomic separation is    0.9773 Angstrom (    1.8468 Bohr)


  Bond distances (Angstrom):
  --------------------------

                  atom 1     atom 2       distance
                  ------     ------       --------
  bond distance:  H          O            0.977259
  bond distance:  H          O            0.977259


  Bond angles (degrees):
  ----------------------

                  atom 1     atom 2     atom 3         angle
                  ------     ------     ------         -----
  bond angle:     H          O          H            109.000




 Principal moments of inertia (u*A**2) and principal axes
 --------------------------------------------------------

   IA       0.576503          0.000000    1.000000    0.000000
   IB       1.275865          1.000000    0.000000    0.000000
   IC       1.852368          0.000000    0.000000    1.000000


 Rotational constants
 --------------------

@    The molecule is planar.

               A                   B                   C

         876628.8169         396107.0071         272828.6660 MHz
           29.241190           13.212708            9.100585 cm-1


@  Nuclear repulsion energy :    8.996423008986 Hartree


                     .---------------------------------------.
                     | Starting in Integral Section (HERMIT) |
                     `---------------------------------------'



 ***************************************************************************************
 ****************** Output from **INTEGRALS input processing (HERMIT) ******************
 ***************************************************************************************



    *************************************************************************
    ****************** Output from HERMIT input processing ******************
    *************************************************************************


 Default print level:        1

 Calculation of one- and two-electron Hamiltonian integrals.

 The following one-electron property integrals are calculated as requested:
          - overlap integrals
          - dipole length integrals

 Center of mass  (bohr):      0.075566958928      0.000000000000      0.000000000000
 Operator center (bohr):      0.000000000000      0.000000000000      0.000000000000
 Gauge origin    (bohr):      0.000000000000      0.000000000000      0.000000000000
 Dipole origin   (bohr):      0.000000000000      0.000000000000      0.000000000000

Calculation of 2-electron integrals are postponed until they are needed.


     ************************************************************************
     ************************** Output from HERINT **************************
     ************************************************************************



                      Nuclear contribution to dipole moments
                      --------------------------------------

                 au               Debye          C m (/(10**-30)

      x     -0.18897261        -0.48032044        -1.60217653
      y      0.00000000         0.00000000         0.00000000
      z      0.00000000         0.00000000         0.00000000


  Total CPU  time used in HERMIT:   0.01 seconds
  Total wall time used in HERMIT:   0.13 seconds


                        .----------------------------------.
                        | End of Integral Section (HERMIT) |
                        `----------------------------------'



                   .--------------------------------------------.
                   | Starting in Wave Function Section (SIRIUS) |
                   `--------------------------------------------'


     WARNING  Reference state is required for CI response and CI-NO
     WARNING  ".STATE" was not specified for "*CI INPUT",
     WARNING  the reference state is set to be state no.  1

 *** Output from Huckel module :

     Using EWMO model:          T
     Using EHT  model:          F
     Number of Huckel orbitals each symmetry:    7

 EWMO - Energy Weighted Maximum Overlap - is a Huckel type method,
        which normally is better than Extended Huckel Theory.
 Reference: Linderberg and Ohrn, Propagators in Quantum Chemistry (Wiley, 1973)

 Huckel EWMO eigenvalues for symmetry :  1
          -20.684655      -1.594745      -0.787122      -0.682665      -0.616200
           -0.240931      -0.173582

 **********************************************************************
 *SIRIUS* a direct, restricted step, second order MCSCF program       *
 **********************************************************************

 
     Date and time (Linux)  : Tue Jul  7 15:26:59 2026
     Host name              : n-62-31-22                              

 Title lines from ".mol" input file:
     test VQE
     dalton test

 Print level on unit LUPRI =   2 is   0
 Print level on unit LUW4  =   2 is   5

@    Configuration interaction calculation.

@    CI response calculation.

@    CI type: user specified active spaces.
@              Type: complete active space calculation (CAS).

@    This is a combination run starting with
@              a restricted, closed shell Hartree-Fock calculation


 Initial molecular orbitals are obtained according to
 ".MOSTART EWMO  " input option

     Wave function specification
     ============================
@    Wave function type        --- CI ---
@    Number of closed shell electrons           6
@    Number of electrons in active shells       4
@    Total charge of the molecule               0

@    Spin multiplicity and 2 M_S                1         0
@    Total number of symmetries                 1 (point group: C1 )
@    Reference state symmetry                   1 (irrep name : A  )

     Orbital specifications
     ======================
@    Abelian symmetry species          All |    1
@                                          |  A  
                                       --- |  ---
@    Inactive orbitals                   3 |    3
@    Active orbitals                     4 |    4
@    Secondary orbitals                 17 |   17
@    Total number of orbitals           24 |   24
@    Number of basis functions          24 |   24

      -- Initial occupation of symmetries is determined from user input.                      
      -- Initial occupation of symmetries is :
@    Occupied SCF orbitals               5 |    5

     Optimization information
     ========================
@    Number of configurations                20
@    Number of orbital rotations              0
     ------------------------------------------
@    Total number of variables               20

     Maximum number of CI iterations         25
     Threshold for CI convergence      1.00D-05
     Number of CI roots to converge           1

@    Reference state in CI response calculation :       1


 ***********************************************
 ***** DIIS acceleration of SCF iterations *****
 ***********************************************

 C1-DIIS algorithm; max error vectors =    8

 Iter      Total energy        Error norm    Delta(E)  DIIS dim.
 -----------------------------------------------------------------------------

Calculating AOSUPINT

---> (Re)generating AOTWOINT


     ************************************************************************
     ************************** Output from HERINT **************************
     ************************************************************************


 Threshold for neglecting two-electron integrals:  1.00D-12
 HERMIT - Number of two-electron integrals written:       21669 ( 48.0% )
 HERMIT - Megabytes written:                              0.275

     (Precalculated AO two-electron integrals are transformed to P-supermatrix elements.
      Threshold for discarding integrals :  1.00D-12 )

@  1    -75.8627126477        1.56431D+00   -7.59D+01    1
      Virial theorem: -V/T =      2.000620
@    MULPOP   O      -0.55; H       0.28; H       0.28; 
   1  Level shift: doubly occupied orbital energies shifted by -2.00D-01
 -----------------------------------------------------------------------------
@  2    -76.0150619074        3.29776D-01   -1.52D-01    2
      Virial theorem: -V/T =      2.002979
@    MULPOP   O      -0.30; H       0.15; H       0.15; 
   2  Level shift: doubly occupied orbital energies shifted by -5.00D-02
 -----------------------------------------------------------------------------
@  3    -76.0236024771        8.11320D-02   -8.54D-03    3
      Virial theorem: -V/T =      2.001227
@    MULPOP   O      -0.32; H       0.16; H       0.16; 
   3  Level shift: doubly occupied orbital energies shifted by -1.25D-02
 -----------------------------------------------------------------------------
@  4    -76.0242788312        2.22459D-02   -6.76D-04    4
      Virial theorem: -V/T =      2.001861
@    MULPOP   O      -0.33; H       0.17; H       0.17; 
 -----------------------------------------------------------------------------
@  5    -76.0243118595        7.33271D-03   -3.30D-05    5
      Virial theorem: -V/T =      2.001410
@    MULPOP   O      -0.34; H       0.17; H       0.17; 
 -----------------------------------------------------------------------------
@  6    -76.0243170498        1.48247D-03   -5.19D-06    6
      Virial theorem: -V/T =      2.001521
@    MULPOP   O      -0.34; H       0.17; H       0.17; 
 -----------------------------------------------------------------------------
@  7    -76.0243174538        2.14252D-04   -4.04D-07    7
      Virial theorem: -V/T =      2.001537
@    MULPOP   O      -0.34; H       0.17; H       0.17; 
 -----------------------------------------------------------------------------
@  8    -76.0243174619        3.53744D-05   -8.10D-09    8
      Virial theorem: -V/T =      2.001537
@    MULPOP   O      -0.34; H       0.17; H       0.17; 
 -----------------------------------------------------------------------------
@  9    -76.0243174621        6.02110D-06   -1.72D-10    8
      Virial theorem: -V/T =      2.001537
@    MULPOP   O      -0.34; H       0.17; H       0.17; 
 -----------------------------------------------------------------------------
@ 10    -76.0243174621        4.44866D-07   -4.52D-12    8
      Virial theorem: -V/T =      2.001537
@    MULPOP   O      -0.34; H       0.17; H       0.17; 
 -----------------------------------------------------------------------------
@ 11    -76.0243174621        6.76643D-08   -2.84D-14    8
      Virial theorem: -V/T =      2.001537
@    MULPOP   O      -0.34; H       0.17; H       0.17; 
 -----------------------------------------------------------------------------
@ 12    -76.0243174621        8.15212D-09   -2.84D-14    8
      Virial theorem: -V/T =      2.001537
@    MULPOP   O      -0.34; H       0.17; H       0.17; 
 -----------------------------------------------------------------------------
@ 13    -76.0243174621        1.25990D-09    5.68D-14    8
      Virial theorem: -V/T =      2.001537
@    MULPOP   O      -0.34; H       0.17; H       0.17; 
 -----------------------------------------------------------------------------
@ 14    -76.0243174621        1.44304D-10   -2.84D-14    8
      Virial theorem: -V/T =      2.001537
@    MULPOP   O      -0.34; H       0.17; H       0.17; 
 -----------------------------------------------------------------------------
@ 15    -76.0243174621        2.47463D-11    2.84D-14    8

@ *** DIIS converged in  15 iterations !
@     Converged SCF energy, gradient:    -76.024317462073    2.47D-11
    - total time used in SIRFCK :              0.00 seconds

 --- Writing SIRIFC interface file

--------------------------------------------------------------------------------


     .--------------------------------------------------.
     | HF-SCF KT IPs [a.u. & eV] from Koopmans' theorem |
     `--------------------------------------------------'


     HF-SCF KT symmetry 1 ( A  ) in point group C1  -- 5 principal poles with pole strength 1

   ============  ============  ============  ============  ============
      20.551252      1.323334      0.696600      0.553795      0.490020
     559.228027     36.009753     18.955463     15.069519     13.334117
   ============  ============  ============  ============  ============

@ Summary of HF-SCF KT ionization potentials [eV]:

@ Symmetry 1 (A  ) :   559.228      36.010      18.955      15.070      13.334

  === End of HF-SCF KT output ===
--------------------------------------------------------------------------------


 CPU and wall time for SCF :       0.068       0.609


 ----- Output from SIRIUS CI module (CICTL) -----




 2-el. integral transformation level 0: Total CPU and WALL times (sec)       0.008       0.031

 (CIST1) 8 lowest diagonal elements:

 Element no. Config.no.    Active energy      Total energy

         1 :          1     -6.1347378669    -76.0243174621
         2 :          7     -5.7994717574    -75.6890513525
         3 :         10     -5.7195808692    -75.6091604643
         4 :          8     -5.7162805438    -75.6058601389
         5 :         11     -5.6437236000    -75.5333031951
         6 :         13     -5.1134675657    -75.0030471609
         7 :          2     -5.1019369089    -74.9915165041
         8 :         19     -5.0591934055    -74.9487730007

Lowest 1 elements are used as separate start CI vectors.


 Convergence threshold for CI optimization :     0.00001000


 CI root     eigenvalue        residual norm

    1      -76.0243174621        0.0280949728

 CI root     eigenvalue        residual norm

    1      -76.0249370959        0.0019635637

 CI root     eigenvalue        residual norm

    1      -76.0249440968        0.0002132164

 CI root     eigenvalue        residual norm

    1      -76.0249441312        0.0000112625

 CI root     eigenvalue        residual norm

    1      -76.0249441313        0.0000004760 converged

 The requested root number is now converged.


 *** CI converged in  5 iterations.



@ Final CI energies and residuals in symmetry 1 (irrep A  )
@    1      -76.024944131272733       4.76D-07

 Writing SIRIFC interface file for CI root no. 1

 CPU and wall time for CI :       0.012       0.065


                       .-----------------------------------.
                       | --- Final results from SIRIUS --- |
                       `-----------------------------------'


@    Spin multiplicity:           1
@    Spatial symmetry:            1 ( irrep  A   in C1  )
@    Total charge of molecule:    0

@    This was a CI calculation.
@    State number:                1

@    Final CI energy:             -76.024944131273
@    Nuclear repulsion:             8.996423008986
@    Electronic energy:           -85.021367140258

@    Final gradient norm:           0.000000476050

 
     Date and time (Linux)  : Tue Jul  7 15:26:59 2026
     Host name              : n-62-31-22                              

 Occupancies of natural orbitals
 -------------------------------

 Symmetry 1  ( A  ) -- Total occupation in this symmetry is  10.000000000

   2.000000000   2.000000000   2.000000000   1.999241467   1.999753618
   0.000829053   0.000175862

  Effective numbers of unpaired electrons this symmetry Eqs. 1) and 2):  0.00  0.00

  Total effective number of unpaired electrons :
  Eq. 1) sum(i) [(2 - n_i) n_i]    =  0.0040
  Eq. 2) sum(i) [(2 - n_i) n_i]**2 =  0.0000
 (Reference: M. Head-Gordon, Chemical Physics Letters 372 (2003) 508-511)

  --- NOTE THAT THE OCCUPATION NUMBERS ARE FOR ANALYSIS PURPOSE ONLY
  --- The orbital coefficients have NOT been transformed
  --- to ordered natural orbitals.

File label for MO orbitals:   7Jul26    CIORB  

 (Only coefficients > 0.0100 are printed.)

 Molecular orbitals for symmetry species 1  (A  )
 ------------------------------------------------

    Orbital         1        2        3        4        5        6        7
   1 O   :1s    -1.0004   0.0079   0.0000   0.0019   0.0000   0.0521   0.0000
   2 O   :1s    -0.0021  -0.8751   0.0000  -0.2817   0.0000  -0.1485   0.0000
   3 O   :1s     0.0014   0.1081  -0.0000  -0.1687   0.0000  -0.9072   0.0000
   4 O   :2px    0.0024   0.1042  -0.0000  -0.8002   0.0000   0.2808  -0.0000
   5 O   :2py    0.0000  -0.0000  -0.7065   0.0000   0.0000  -0.0000  -0.4179
   6 O   :2pz   -0.0000  -0.0000  -0.0000  -0.0000  -0.9197  -0.0000   0.0000
   7 O   :2px   -0.0017  -0.0566  -0.0000  -0.0111   0.0000   0.2050  -0.0000
   8 O   :2py   -0.0000   0.0000   0.1051  -0.0000  -0.0000   0.0000  -0.4833
   9 O   :2pz   -0.0000  -0.0000  -0.0000  -0.0000  -0.0739  -0.0000   0.0000
  10 O   :3d2-  -0.0000   0.0000   0.0253  -0.0000   0.0000   0.0000   0.0201
  12 O   :3d0    0.0001   0.0031  -0.0000  -0.0127   0.0000   0.0110  -0.0000
  13 O   :3d1+   0.0000   0.0000   0.0000   0.0000   0.0175   0.0000  -0.0000
  14 O   :3d2+   0.0001   0.0010   0.0000   0.0124  -0.0000  -0.0009   0.0000
  15 H   :1s     0.0002  -0.3116  -0.5557   0.3387   0.0000   0.1175   0.0460
  16 H   :1s    -0.0006   0.1452   0.1882  -0.1252  -0.0000   0.7646   1.3642
  17 H   :2px    0.0004  -0.0182  -0.0313  -0.0085   0.0000   0.0151   0.0154
  18 H   :2py   -0.0005   0.0368   0.0254  -0.0303  -0.0000  -0.0161  -0.0202
  19 H   :2pz    0.0000   0.0000   0.0000   0.0000  -0.0300   0.0000  -0.0000
  20 H   :1s     0.0002  -0.3116   0.5557   0.3387  -0.0000   0.1175  -0.0460
  21 H   :1s    -0.0006   0.1452  -0.1882  -0.1252  -0.0000   0.7646  -1.3642
  22 H   :2px    0.0004  -0.0182   0.0313  -0.0085  -0.0000   0.0151  -0.0154
  23 H   :2py    0.0005  -0.0368   0.0254   0.0303  -0.0000   0.0161  -0.0202
  24 H   :2pz    0.0000   0.0000   0.0000   0.0000  -0.0300   0.0000  -0.0000

    Orbital         8        9       10       11       12       13       14
   1 O   :1s     0.0000   0.0608  -0.0081   0.0000   0.0000   0.0000  -0.2517
   2 O   :1s     0.0000   0.4803   0.1567   0.0000   0.0000   0.0000  -1.2471
   3 O   :1s     0.0000  -0.5323   0.6282   0.0000  -0.0000  -0.0000   1.4455
   4 O   :2px   -0.0000  -0.4242   1.1435   0.0000  -0.0000   0.0000  -0.2494
   5 O   :2py    0.4206  -0.0000  -0.0000   0.0000  -1.0565   0.0000   0.0000
   6 O   :2pz   -0.0000  -0.0000   0.0000  -1.4102   0.0000  -0.0000   0.0000
   7 O   :2px   -0.0000   0.1437  -1.7544   0.0000   0.0000   0.0000   0.7936
   8 O   :2py    0.2256   0.0000   0.0000  -0.0000   2.2439  -0.0000   0.0000
   9 O   :2pz   -0.0000  -0.0000   0.0000   1.6596   0.0000   0.0000   0.0000
  10 O   :3d2-   0.1101  -0.0000  -0.0000   0.0000  -0.0350  -0.0000  -0.0000
  11 O   :3d1-   0.0000   0.0000  -0.0000  -0.0000   0.0000  -0.1329  -0.0000
  12 O   :3d0   -0.0000   0.0865  -0.0067   0.0000  -0.0000  -0.0000  -0.0534
  14 O   :3d2+   0.0000   0.0606   0.0104  -0.0000   0.0000   0.0000   0.1102
  15 H   :1s    -1.5992  -1.4130  -0.7892   0.0000  -0.6607   0.0000   0.4464
  16 H   :1s     1.5007   1.2648   0.2614  -0.0000  -0.4474  -0.0000  -0.4583
  17 H   :2px    0.1584   0.0335  -0.2521   0.0000  -0.1453  -0.0000  -0.5629
  18 H   :2py   -0.0703  -0.2685   0.1062  -0.0000   0.3311  -0.0000  -0.2800
  19 H   :2pz    0.0000   0.0000  -0.0000   0.0262  -0.0000  -0.6808  -0.0000
  20 H   :1s     1.5992  -1.4130  -0.7892  -0.0000   0.6607  -0.0000   0.4464
  21 H   :1s    -1.5007   1.2648   0.2614  -0.0000   0.4474  -0.0000  -0.4583
  22 H   :2px   -0.1584   0.0335  -0.2521  -0.0000   0.1453   0.0000  -0.5629
  23 H   :2py   -0.0703   0.2685  -0.1062  -0.0000   0.3311   0.0000   0.2800
  24 H   :2pz    0.0000   0.0000  -0.0000   0.0262  -0.0000   0.6808  -0.0000

    Orbital        15       16       17
   1 O   :1s     0.0000  -0.7182   0.0000
   2 O   :1s     0.0000  -3.1100   0.0000
   3 O   :1s     0.0000   4.6847  -0.0000
   4 O   :2px    0.0000  -0.0835  -0.0000
   5 O   :2py    0.0000  -0.0000  -0.1371
   6 O   :2pz    0.0234  -0.0000   0.0000
   7 O   :2px    0.0000  -0.9163  -0.0000
   8 O   :2py   -0.0000   0.0000   1.0554
   9 O   :2pz   -0.6582  -0.0000   0.0000
  10 O   :3d2-   0.0000   0.0000   0.0240
  12 O   :3d0    0.0000   0.1528  -0.0000
  13 O   :3d1+  -0.1615   0.0000  -0.0000
  14 O   :3d2+  -0.0000  -0.0557   0.0000
  15 H   :1s     0.0000  -1.3162  -0.7340
  16 H   :1s    -0.0000   0.2849   0.2615
  17 H   :2px    0.0000   0.0988  -0.6795
  18 H   :2py   -0.0000   0.3910  -0.4423
  19 H   :2pz    0.7689   0.0000  -0.0000
  20 H   :1s    -0.0000  -1.3162   0.7340
  21 H   :1s    -0.0000   0.2849  -0.2615
  22 H   :2px   -0.0000   0.0988   0.6795
  23 H   :2py   -0.0000  -0.3910  -0.4423
  24 H   :2pz    0.7689   0.0000  -0.0000

 Printout of CI-coefficients abs greater than 0.05000 for root  1
 *** NOTE: this root is the CI reference state ***

 Printout of coefficients in interval  3.1623E-01 to  1.0000E+00
 ===============================================================

  Coefficient of CSF no.         1 is      0.99974175    9.99741751E-01
  Orbital          1   2
  Spin coupling    2   2

 Printout of coefficients in interval  1.0000E-01 to  3.1623E-01
 ===============================================================
   ( no coefficients )

 Printout of coefficients in interval  5.0000E-02 to  1.0000E-01
 ===============================================================
   ( no coefficients )

 Norm of printed CI vector ..      0.99948357

 Magnitude of CI coefficients
 ============================
 ( Ranges are relative to norm of vector :  1.00E+00 )

  10- 1 to 10- 0         1    0.99948357E+00      0.9994835678
  10- 2 to 10- 1         2    0.41425976E-03      0.9998978276
  10- 3 to 10- 2         3    0.10214766E-03      0.9999999753
  10- 4 to 10- 3         1    0.14743295E-07      0.9999999900
  10- 5 to 10- 4         1    0.99984306E-08      1.0000000000
  Number of coefficients less than 10^-11 times norm is           12

  Total CPU  time used in SIRIUS :   0.09 seconds
  Total wall time used in SIRIUS :   0.75 seconds

 
     Date and time (Linux)  : Tue Jul  7 15:26:59 2026
     Host name              : n-62-31-22                              


                     .---------------------------------------.
                     | End of Wave Function Section (SIRIUS) |
                     `---------------------------------------'



                 .------------------------------------------------.
                 | Starting in Dynamic Property Section (RESPONS) |
                 `------------------------------------------------'


 ----------------------------------------------------------------------------------------
  RESPONSE  -  an MCSCF, MC-srDFT, DFT, SOPPA and SOPPA-srDFT response property program
 ----------------------------------------------------------------------------------------

 This is a configuration interaction response calculation.
   Note: this is equivalent to a CI sum-over-states calculation of response properties.


 -------- OUTPUT FROM RESPONSE INPUT PROCESSING --------




  Linear Response single residue calculation
 -------------------------------------------


    4 input options by user.

 Print level                                    : IPRPP  =   2
 Maximum number of iterations for eigenval.eqs. : MAXITP =  60
 Threshold for convergence of eigenvalue eqs.   : THCPP  = 1.000D-03
 Maximum iterations in optimal orbital algorithm: MAXITO =   5

    300 Excitation energies are calculated for symmetry no.    1

      3 property residues are calculated with labels:

               XDIPLEN 
               YDIPLEN 
               ZDIPLEN 

 Old direct access AO file found, SORTA skipped.

 2-el. integral transformation level 4: Total CPU and WALL times (sec)       0.010       0.082


 CI energy            :      -76.024944131272733
 -- inactive part     :      -69.889579595179271
 --   active part     :       -6.135364536093462
 -- nuclear repulsion :        8.996423008985666


                         *******************************
                         *** CI response calculation ***
                         *******************************

 ----------------------------------------------------------------
 ----- Linear response calculation
 ----- Symmetry of excitation/property operator(s)    1  ( A  )
 ----------------------------------------------------------------

 Number of excitations of this symmetry          300
 Number of response properties of this symmetry    0
 Number of C6/C8 properties of this symmetry       0


 Perturbation symmetry.     KSYMOP:           1
 Perturbation spin symmetry.TRPLET:           F
 Orbital variables.         KZWOPT:           0
 Configuration variables.   KZCONF:          20
 Total number of variables. KZVAR :          20

 ** RSPVAR ** Number of PP start vectors  300
   exceeds the maximum number of variables   19
   Number of start vectors reset to number of variables



 --- EXCITATION ENERGIES AND TRANSITION MOMENT CALCULATION (MCTDHF) ---

 Operator symmetry = 1  ( A  ); triplet =   F

RSPORT:    1 out of   20 new trial vectors linear dependent

 ** RSPCTL MICROITERATION NUMBER    1

      Root  Residual tot.,    conf., and orb.    Bnorm      Eigenvalue
      ----------------------------------------------------------------
         1    5.39303D-16  5.39D-16  0.00D+00  1.00D+00    3.43169D-01
         2    1.55114D-15  1.55D-15  0.00D+00  1.00D+00    4.17840D-01
         3    6.74804D-16  6.75D-16  0.00D+00  1.00D+00    4.27907D-01
         4    1.24448D-15  1.24D-15  0.00D+00  1.00D+00    4.96554D-01
         5    1.15114D-15  1.15D-15  0.00D+00  1.00D+00    9.92375D-01
         6    1.09948D-15  1.10D-15  0.00D+00  1.00D+00    1.02520D+00
         7    1.24930D-15  1.25D-15  0.00D+00  1.00D+00    1.03804D+00
         8    1.76176D-15  1.76D-15  0.00D+00  1.00D+00    1.15888D+00
         9    1.32500D-15  1.33D-15  0.00D+00  1.00D+00    1.18051D+00
        10    1.15827D-15  1.16D-15  0.00D+00  1.00D+00    1.22374D+00
        11    1.73253D-15  1.73D-15  0.00D+00  1.00D+00    1.22865D+00
        12    2.35193D-15  2.35D-15  0.00D+00  1.00D+00    1.26999D+00
        13    2.06909D-15  2.07D-15  0.00D+00  1.00D+00    1.34211D+00
        14    1.80339D-15  1.80D-15  0.00D+00  1.00D+00    1.38659D+00
        15    3.54414D-15  3.54D-15  0.00D+00  1.00D+00    2.01068D+00
        16    3.13569D-15  3.14D-15  0.00D+00  1.00D+00    2.07168D+00
        17    1.72940D-15  1.73D-15  0.00D+00  1.00D+00    2.10447D+00
        18    3.05066D-15  3.05D-15  0.00D+00  1.00D+00    2.16808D+00
        19    1.79251D-15  1.79D-15  0.00D+00  1.00D+00    3.34937D+00
        20    5.39303D-16  5.39D-16  0.00D+00  1.00D+00   -3.43169D-01

 *** THE REQUESTED   19 SOLUTION VECTORS CONVERGED

 Convergence of RSP solution vectors, threshold = 1.00D-03
 ---------------------------------------------------------------
 (dimension of paired reduced space:   38)
 RSP solution vector no.    1; norm of residual   5.39D-16
 RSP solution vector no.    2; norm of residual   1.55D-15
 RSP solution vector no.    3; norm of residual   6.75D-16
 RSP solution vector no.    4; norm of residual   1.24D-15
 RSP solution vector no.    5; norm of residual   1.15D-15
 RSP solution vector no.    6; norm of residual   1.10D-15
 RSP solution vector no.    7; norm of residual   1.25D-15
 RSP solution vector no.    8; norm of residual   1.76D-15
 RSP solution vector no.    9; norm of residual   1.33D-15
 RSP solution vector no.   10; norm of residual   1.16D-15
 RSP solution vector no.   11; norm of residual   1.73D-15
 RSP solution vector no.   12; norm of residual   2.35D-15
 RSP solution vector no.   13; norm of residual   2.07D-15
 RSP solution vector no.   14; norm of residual   1.80D-15
 RSP solution vector no.   15; norm of residual   3.54D-15
 RSP solution vector no.   16; norm of residual   3.14D-15
 RSP solution vector no.   17; norm of residual   1.73D-15
 RSP solution vector no.   18; norm of residual   3.05D-15
 RSP solution vector no.   19; norm of residual   1.79D-15

 *** RSPCTL MICROITERATIONS CONVERGED

@ Singlet transition operator label: XDIPLEN 
@ STATE NO:    1 *TRANSITION MOMENT:  5.58605602E-15 *ENERGY(eV):   9.3381006    
@ STATE NO:    2 *TRANSITION MOMENT:  2.03911752E-14 *ENERGY(eV):   11.370016    
@ STATE NO:    3 *TRANSITION MOMENT: -0.65738288     *ENERGY(eV):   11.643934    
@ STATE NO:    4 *TRANSITION MOMENT: -1.56923827E-15 *ENERGY(eV):   13.511909    
@ STATE NO:    5 *TRANSITION MOMENT: -2.95343884E-02 *ENERGY(eV):   27.003893    
@ STATE NO:    6 *TRANSITION MOMENT: -1.42307602E-15 *ENERGY(eV):   27.897007    
@ STATE NO:    7 *TRANSITION MOMENT: -1.45127137E-15 *ENERGY(eV):   28.246526    
@ STATE NO:    8 *TRANSITION MOMENT:  1.91575797E-02 *ENERGY(eV):   31.534812    
@ STATE NO:    9 *TRANSITION MOMENT: -2.16705581E-15 *ENERGY(eV):   32.123434    
@ STATE NO:   10 *TRANSITION MOMENT: -1.41343347E-15 *ENERGY(eV):   33.299580    
@ STATE NO:   11 *TRANSITION MOMENT:  1.97362257E-02 *ENERGY(eV):   33.433248    
@ STATE NO:   12 *TRANSITION MOMENT: -5.91013294E-16 *ENERGY(eV):   34.558070    
@ STATE NO:   13 *TRANSITION MOMENT:  1.19480671E-15 *ENERGY(eV):   36.520692    
@ STATE NO:   14 *TRANSITION MOMENT: -6.73614541E-03 *ENERGY(eV):   37.731042    
@ STATE NO:   15 *TRANSITION MOMENT:  5.61286727E-17 *ENERGY(eV):   54.713510    

@ Singlet transition operator label: YDIPLEN 
@ STATE NO:    1 *TRANSITION MOMENT:  1.44101608E-14 *ENERGY(eV):   9.3381006    
@ STATE NO:    2 *TRANSITION MOMENT: -1.18387700E-14 *ENERGY(eV):   11.370016    
@ STATE NO:    3 *TRANSITION MOMENT: -2.08374365E-14 *ENERGY(eV):   11.643934    
@ STATE NO:    4 *TRANSITION MOMENT:  0.58612164     *ENERGY(eV):   13.511909    
@ STATE NO:    5 *TRANSITION MOMENT: -4.16415880E-16 *ENERGY(eV):   27.003893    
@ STATE NO:    6 *TRANSITION MOMENT:  4.61883050E-16 *ENERGY(eV):   27.897007    
@ STATE NO:    7 *TRANSITION MOMENT:  2.39236126E-16 *ENERGY(eV):   28.246526    
@ STATE NO:    8 *TRANSITION MOMENT: -2.10085787E-15 *ENERGY(eV):   31.534812    
@ STATE NO:    9 *TRANSITION MOMENT: -3.80755499E-02 *ENERGY(eV):   32.123434    
@ STATE NO:   10 *TRANSITION MOMENT: -1.02136570E-15 *ENERGY(eV):   33.299580    
@ STATE NO:   11 *TRANSITION MOMENT: -3.39194782E-15 *ENERGY(eV):   33.433248    
@ STATE NO:   12 *TRANSITION MOMENT: -5.66825812E-16 *ENERGY(eV):   34.558070    
@ STATE NO:   13 *TRANSITION MOMENT: -3.08062297E-02 *ENERGY(eV):   36.520692    
@ STATE NO:   14 *TRANSITION MOMENT:  3.63089263E-15 *ENERGY(eV):   37.731042    
@ STATE NO:   15 *TRANSITION MOMENT: -2.38638908E-03 *ENERGY(eV):   54.713510    

@ Singlet transition operator label: ZDIPLEN 
@ STATE NO:    1 *TRANSITION MOMENT:  0.34266525     *ENERGY(eV):   9.3381006    
@ STATE NO:    2 *TRANSITION MOMENT:  1.40066591E-14 *ENERGY(eV):   11.370016    
@ STATE NO:    3 *TRANSITION MOMENT: -3.10323218E-15 *ENERGY(eV):   11.643934    
@ STATE NO:    4 *TRANSITION MOMENT:  9.55298714E-16 *ENERGY(eV):   13.511909    
@ STATE NO:    5 *TRANSITION MOMENT:  1.21211215E-15 *ENERGY(eV):   27.003893    
@ STATE NO:    6 *TRANSITION MOMENT:  1.78657009E-16 *ENERGY(eV):   27.897007    
@ STATE NO:    7 *TRANSITION MOMENT: -1.85113051E-02 *ENERGY(eV):   28.246526    
@ STATE NO:    8 *TRANSITION MOMENT:  6.23176947E-16 *ENERGY(eV):   31.534812    
@ STATE NO:    9 *TRANSITION MOMENT:  1.10737205E-15 *ENERGY(eV):   32.123434    
@ STATE NO:   10 *TRANSITION MOMENT: -1.22742250E-15 *ENERGY(eV):   33.299580    
@ STATE NO:   11 *TRANSITION MOMENT: -6.15935546E-16 *ENERGY(eV):   33.433248    
@ STATE NO:   12 *TRANSITION MOMENT: -1.00460815E-02 *ENERGY(eV):   34.558070    
@ STATE NO:   13 *TRANSITION MOMENT:  4.70001258E-16 *ENERGY(eV):   36.520692    
@ STATE NO:   14 *TRANSITION MOMENT:  2.08293708E-16 *ENERGY(eV):   37.731042    
@ STATE NO:   15 *TRANSITION MOMENT:  5.09645940E-17 *ENERGY(eV):   54.713510    


 **************************************************************************************
 *** @ Excit. operator sym 1 & ref. state sym 1 => excited state symmetry 1  ( A  ) ***
 **************************************************************************************



 @ Excited state no:    1 in symmetry 1  ( A  ) - singlet excitation
 -------------------------------------------------------------------

@ Excitation energy :  0.34316889     au
@                       9.3381006     eV;   75316.866     cm-1;   900.98979     kJ / mol

@ Total energy :       -75.681775     au

@ Operator label: XDIPLEN ; Transition moment :  5.58605602E-15 au
@ Oscillator strength (LENGTH)   :  7.13883313E-30  (X-polarization)

@ Operator label: YDIPLEN ; Transition moment :  1.44101608E-14 au
@ Oscillator strength (LENGTH)   :  4.75066399E-29  (Y-polarization)

@ Operator label: ZDIPLEN ; Transition moment :  0.34266525     au
@ Oscillator strength (LENGTH)   :  2.68631403E-02  (Z-polarization)
@ Total oscillator strength (LENGTH)   :  2.68631403E-02

 Eigenvector for state no.  1

      Index(conf)                         Z operator          Y operator
      ----------                      --------------      --------------
           7                           -0.9971118048        0.0000000000

       19 elements with absolute value ≤ 1.00D-01 are not printed.

 Printout of coefficients in interval  3.1623E-01 to  1.0000E+00
 ===============================================================

  Coefficient of CSF no.         7 is     -0.99711180   -9.97111805E-01
  Orbital          1   2   3
  Spin coupling    2   1  -1

 Printout of coefficients in interval  1.0000E-01 to  3.1623E-01
 ===============================================================
   ( no coefficients )

 Norm of printed CI vector ..      0.99423195

 Magnitude of CI coefficients
 ============================
 ( Ranges are relative to norm of vector :  1.00E+00 )

  10- 1 to 10- 0         1    0.99423195E+00      0.9942319513
  10- 2 to 10- 1         2    0.57179057E-02      0.9999498571
  10- 3 to 10- 2         1    0.50142922E-04      1.0000000000
  Number of coefficients less than 10^-11 times norm is           16


 @ Excited state no:    2 in symmetry 1  ( A  ) - singlet excitation
 -------------------------------------------------------------------

@ Excitation energy :  0.41784042     au
@                       11.370016     eV;   91705.371     cm-1;   1097.0398     kJ / mol

@ Total energy :       -75.607104     au

@ Operator label: XDIPLEN ; Transition moment :  2.03911752E-14 au
@ Oscillator strength (LENGTH)   :  1.15825371E-28  (X-polarization)

@ Operator label: YDIPLEN ; Transition moment : -1.18387700E-14 au
@ Oscillator strength (LENGTH)   :  3.90420267E-29  (Y-polarization)

@ Operator label: ZDIPLEN ; Transition moment :  1.40066591E-14 au
@ Oscillator strength (LENGTH)   :  5.46497659E-29  (Z-polarization)
@ Total oscillator strength (LENGTH)   :  2.09517163E-28

 Eigenvector for state no.  2

      Index(conf)                         Z operator          Y operator
      ----------                      --------------      --------------
           8                           -0.9949816410        0.0000000000

       19 elements with absolute value ≤ 1.00D-01 are not printed.

 Printout of coefficients in interval  3.1623E-01 to  1.0000E+00
 ===============================================================

  Coefficient of CSF no.         8 is     -0.99498164   -9.94981641E-01
  Orbital          1   2   4
  Spin coupling    2   1  -1

 Printout of coefficients in interval  1.0000E-01 to  3.1623E-01
 ===============================================================
   ( no coefficients )

 Norm of printed CI vector ..      0.98998847

 Magnitude of CI coefficients
 ============================
 ( Ranges are relative to norm of vector :  1.00E+00 )

  10- 1 to 10- 0         1    0.98998847E+00      0.9899884660
  10- 2 to 10- 1         2    0.99922028E-02      0.9999806687
  10- 3 to 10- 2         1    0.19331279E-04      1.0000000000
  Number of coefficients less than 10^-11 times norm is           16


 @ Excited state no:    3 in symmetry 1  ( A  ) - singlet excitation
 -------------------------------------------------------------------

@ Excitation energy :  0.42790670     au
@                       11.643934     eV;   93914.664     cm-1;   1123.4689     kJ / mol

@ Total energy :       -75.597037     au

@ Operator label: XDIPLEN ; Transition moment : -0.65738288     au
@ Oscillator strength (LENGTH)   :  0.12328056      (X-polarization)

@ Operator label: YDIPLEN ; Transition moment : -2.08374365E-14 au
@ Oscillator strength (LENGTH)   :  1.23864371E-28  (Y-polarization)

@ Operator label: ZDIPLEN ; Transition moment : -3.10323218E-15 au
@ Oscillator strength (LENGTH)   :  2.74717525E-30  (Z-polarization)
@ Total oscillator strength (LENGTH)   :  0.12328056    

 Eigenvector for state no.  3

      Index(conf)                         Z operator          Y operator
      ----------                      --------------      --------------
           3                           -0.1060076474        0.0000000000
          10                            0.9941224489        0.0000000000

       18 elements with absolute value ≤ 1.00D-01 are not printed.

 Printout of coefficients in interval  3.1623E-01 to  1.0000E+00
 ===============================================================

  Coefficient of CSF no.        10 is      0.99412245    9.94122449E-01
  Orbital          2   1   3
  Spin coupling    2   1  -1

 Printout of coefficients in interval  1.0000E-01 to  3.1623E-01
 ===============================================================

  Coefficient of CSF no.         3 is     -0.10600765   -1.06007647E-01
  Orbital          2   3
  Spin coupling    2   2

 Norm of printed CI vector ..      0.99951706

 Magnitude of CI coefficients
 ============================
 ( Ranges are relative to norm of vector :  1.00E+00 )

  10- 1 to 10- 0         2    0.99951706E+00      0.9995170648
  10- 2 to 10- 1         1    0.41029003E-03      0.9999273548
  10- 3 to 10- 2         4    0.72341934E-04      0.9999996967
  10- 4 to 10- 3         1    0.30326771E-06      1.0000000000
  Number of coefficients less than 10^-11 times norm is           12


 @ Excited state no:    4 in symmetry 1  ( A  ) - singlet excitation
 -------------------------------------------------------------------

@ Excitation energy :  0.49655352     au
@                       13.511909     eV;   108980.90     cm-1;   1303.7011     kJ / mol

@ Total energy :       -75.528391     au

@ Operator label: XDIPLEN ; Transition moment : -1.56923827E-15 au
@ Oscillator strength (LENGTH)   :  8.15178247E-31  (X-polarization)

@ Operator label: YDIPLEN ; Transition moment :  0.58612164     au
@ Oscillator strength (LENGTH)   :  0.11372352      (Y-polarization)

@ Operator label: ZDIPLEN ; Transition moment :  9.55298714E-16 au
@ Oscillator strength (LENGTH)   :  3.02101714E-31  (Z-polarization)
@ Total oscillator strength (LENGTH)   :  0.11372352    

 Eigenvector for state no.  4

      Index(conf)                         Z operator          Y operator
      ----------                      --------------      --------------
          11                            0.9952890384        0.0000000000

       19 elements with absolute value ≤ 1.00D-01 are not printed.

 Printout of coefficients in interval  3.1623E-01 to  1.0000E+00
 ===============================================================

  Coefficient of CSF no.        11 is      0.99528904    9.95289038E-01
  Orbital          2   1   4
  Spin coupling    2   1  -1

 Printout of coefficients in interval  1.0000E-01 to  3.1623E-01
 ===============================================================
   ( no coefficients )

 Norm of printed CI vector ..      0.99060027

 Magnitude of CI coefficients
 ============================
 ( Ranges are relative to norm of vector :  1.00E+00 )

  10- 1 to 10- 0         1    0.99060027E+00      0.9906002699
  10- 2 to 10- 1         1    0.93300105E-02      0.9999302805
  10- 3 to 10- 2         2    0.69719548E-04      1.0000000000
  Number of coefficients less than 10^-11 times norm is           16


 @ Excited state no:    5 in symmetry 1  ( A  ) - singlet excitation
 -------------------------------------------------------------------

@ Excitation energy :  0.99237483     au
@                       27.003893     eV;   217801.10     cm-1;   2605.4797     kJ / mol

@ Total energy :       -75.032569     au

@ Operator label: XDIPLEN ; Transition moment : -2.95343884E-02 au
@ Oscillator strength (LENGTH)   :  5.77085875E-04  (X-polarization)

@ Operator label: YDIPLEN ; Transition moment : -4.16415880E-16 au
@ Oscillator strength (LENGTH)   :  1.14719976E-31  (Y-polarization)

@ Operator label: ZDIPLEN ; Transition moment :  1.21211215E-15 au
@ Oscillator strength (LENGTH)   :  9.72008553E-31  (Z-polarization)
@ Total oscillator strength (LENGTH)   :  5.77085875E-04

 Eigenvector for state no.  5

      Index(conf)                         Z operator          Y operator
      ----------                      --------------      --------------
           2                           -0.9028894045        0.0000000000
           3                            0.2426831598        0.0000000000
           4                            0.3348522709        0.0000000000

       17 elements with absolute value ≤ 1.00D-01 are not printed.

 Printout of coefficients in interval  3.1623E-01 to  1.0000E+00
 ===============================================================

  Coefficient of CSF no.         2 is     -0.90288940   -9.02889404E-01
  Orbital          1   3
  Spin coupling    2   2

  Coefficient of CSF no.         4 is      0.33485227    3.34852271E-01
  Orbital          1   4
  Spin coupling    2   2

 Printout of coefficients in interval  1.0000E-01 to  3.1623E-01
 ===============================================================

  Coefficient of CSF no.         3 is      0.24268316    2.42683160E-01
  Orbital          2   3
  Spin coupling    2   2

 Norm of printed CI vector ..      0.98623044

 Magnitude of CI coefficients
 ============================
 ( Ranges are relative to norm of vector :  1.00E+00 )

  10- 1 to 10- 0         3    0.98623044E+00      0.9862304361
  10- 2 to 10- 1         3    0.13689076E-01      0.9999195122
  10- 3 to 10- 2         2    0.80487813E-04      1.0000000000
  Number of coefficients less than 10^-11 times norm is           12


 @ Excited state no:    6 in symmetry 1  ( A  ) - singlet excitation
 -------------------------------------------------------------------

@ Excitation energy :   1.0251962     au
@                       27.897007     eV;   225004.55     cm-1;   2691.6522     kJ / mol

@ Total energy :       -74.999748     au

@ Operator label: XDIPLEN ; Transition moment : -1.42307602E-15 au
@ Oscillator strength (LENGTH)   :  1.38411420E-30  (X-polarization)

@ Operator label: YDIPLEN ; Transition moment :  4.61883050E-16 au
@ Oscillator strength (LENGTH)   :  1.45807470E-31  (Y-polarization)

@ Operator label: ZDIPLEN ; Transition moment :  1.78657009E-16 au
@ Oscillator strength (LENGTH)   :  2.18150313E-32  (Z-polarization)
@ Total oscillator strength (LENGTH)   :  1.55173671E-30

 Eigenvector for state no.  6

      Index(conf)                         Z operator          Y operator
      ----------                      --------------      --------------
          15                            0.1377601051        0.0000000000
          19                            0.9877718712        0.0000000000

       18 elements with absolute value ≤ 1.00D-01 are not printed.

 Printout of coefficients in interval  3.1623E-01 to  1.0000E+00
 ===============================================================

  Coefficient of CSF no.        19 is      0.98777187    9.87771871E-01
  Orbital          1   2   3   4
  Spin coupling    1   1  -1  -1

 Printout of coefficients in interval  1.0000E-01 to  3.1623E-01
 ===============================================================

  Coefficient of CSF no.        15 is      0.13776011    1.37760105E-01
  Orbital          3   2   4
  Spin coupling    2   1  -1

 Printout of coefficients in interval  1.0000E-01 to  1.0000E-01
 ===============================================================
   ( no coefficients )

 Norm of printed CI vector ..      0.99467112

 Magnitude of CI coefficients
 ============================
 ( Ranges are relative to norm of vector :  1.00E+00 )

  10- 1 to 10- 0         2    0.99467112E+00      0.9946711161
  10- 2 to 10- 1         1    0.53080943E-02      0.9999792104
  10- 3 to 10- 2         1    0.20789602E-04      1.0000000000
  Number of coefficients less than 10^-11 times norm is           16


 @ Excited state no:    7 in symmetry 1  ( A  ) - singlet excitation
 -------------------------------------------------------------------

@ Excitation energy :   1.0380407     au
@                       28.246526     eV;   227823.61     cm-1;   2725.3756     kJ / mol

@ Total energy :       -74.986903     au

@ Operator label: XDIPLEN ; Transition moment : -1.45127137E-15 au
@ Oscillator strength (LENGTH)   :  1.45753972E-30  (X-polarization)

@ Operator label: YDIPLEN ; Transition moment :  2.39236126E-16 au
@ Oscillator strength (LENGTH)   :  3.96074301E-32  (Y-polarization)

@ Operator label: ZDIPLEN ; Transition moment : -1.85113051E-02 au
@ Oscillator strength (LENGTH)   :  2.37135853E-04  (Z-polarization)
@ Total oscillator strength (LENGTH)   :  2.37135853E-04

 Eigenvector for state no.  7

      Index(conf)                         Z operator          Y operator
      ----------                      --------------      --------------
          13                           -0.9310047886        0.0000000000
          16                            0.3562873352        0.0000000000

       18 elements with absolute value ≤ 1.00D-01 are not printed.

 Printout of coefficients in interval  3.1623E-01 to  1.0000E+00
 ===============================================================

  Coefficient of CSF no.        13 is     -0.93100479   -9.31004789E-01
  Orbital          3   1   2
  Spin coupling    2   1  -1

  Coefficient of CSF no.        16 is      0.35628734    3.56287335E-01
  Orbital          4   1   2
  Spin coupling    2   1  -1

 Printout of coefficients in interval  1.0000E-01 to  3.1623E-01
 ===============================================================
   ( no coefficients )

 Norm of printed CI vector ..      0.99371058

 Magnitude of CI coefficients
 ============================
 ( Ranges are relative to norm of vector :  1.00E+00 )

  10- 1 to 10- 0         2    0.99371058E+00      0.9937105816
  10- 2 to 10- 1         2    0.62894184E-02      1.0000000000
  Number of coefficients less than 10^-11 times norm is           16


 @ Excited state no:    8 in symmetry 1  ( A  ) - singlet excitation
 -------------------------------------------------------------------

@ Excitation energy :   1.1588830     au
@                       31.534812     eV;   254345.43     cm-1;   3042.6470     kJ / mol

@ Total energy :       -74.866061     au

@ Operator label: XDIPLEN ; Transition moment :  1.91575797E-02 au
@ Oscillator strength (LENGTH)   :  2.83549987E-04  (X-polarization)

@ Operator label: YDIPLEN ; Transition moment : -2.10085787E-15 au
@ Oscillator strength (LENGTH)   :  3.40990040E-30  (Y-polarization)

@ Operator label: ZDIPLEN ; Transition moment :  6.23176947E-16 au
@ Oscillator strength (LENGTH)   :  3.00034439E-31  (Z-polarization)
@ Total oscillator strength (LENGTH)   :  2.83549987E-04

 Eigenvector for state no.  8

      Index(conf)                         Z operator          Y operator
      ----------                      --------------      --------------
           2                           -0.2474679771        0.0000000000
           3                           -0.8925922446        0.0000000000
           5                            0.3563119308        0.0000000000

       17 elements with absolute value ≤ 1.00D-01 are not printed.

 Printout of coefficients in interval  3.1623E-01 to  1.0000E+00
 ===============================================================

  Coefficient of CSF no.         3 is     -0.89259224   -8.92592245E-01
  Orbital          2   3
  Spin coupling    2   2

  Coefficient of CSF no.         5 is      0.35631193    3.56311931E-01
  Orbital          2   4
  Spin coupling    2   2

 Printout of coefficients in interval  1.0000E-01 to  3.1623E-01
 ===============================================================

  Coefficient of CSF no.         2 is     -0.24746798   -2.47467977E-01
  Orbital          1   3
  Spin coupling    2   2

 Norm of printed CI vector ..      0.98491951

 Magnitude of CI coefficients
 ============================
 ( Ranges are relative to norm of vector :  1.00E+00 )

  10- 1 to 10- 0         3    0.98491951E+00      0.9849195068
  10- 2 to 10- 1         4    0.15071096E-01      0.9999906027
  10- 3 to 10- 2         1    0.93972948E-05      1.0000000000
  Number of coefficients less than 10^-11 times norm is           12


 @ Excited state no:    9 in symmetry 1  ( A  ) - singlet excitation
 -------------------------------------------------------------------

@ Excitation energy :   1.1805145     au
@                       32.123434     eV;   259092.98     cm-1;   3099.4404     kJ / mol

@ Total energy :       -74.844430     au

@ Operator label: XDIPLEN ; Transition moment : -2.16705581E-15 au
@ Oscillator strength (LENGTH)   :  3.69590041E-30  (X-polarization)

@ Operator label: YDIPLEN ; Transition moment : -3.80755499E-02 au
@ Oscillator strength (LENGTH)   :  1.14096531E-03  (Y-polarization)

@ Operator label: ZDIPLEN ; Transition moment :  1.10737205E-15 au
@ Oscillator strength (LENGTH)   :  9.65088591E-31  (Z-polarization)
@ Total oscillator strength (LENGTH)   :  1.14096531E-03

 Eigenvector for state no.  9

      Index(conf)                         Z operator          Y operator
      ----------                      --------------      --------------
           9                            0.9590764862        0.0000000000
          12                           -0.2681634415        0.0000000000

       18 elements with absolute value ≤ 1.00D-01 are not printed.

 Printout of coefficients in interval  3.1623E-01 to  1.0000E+00
 ===============================================================

  Coefficient of CSF no.         9 is      0.95907649    9.59076486E-01
  Orbital          1   3   4
  Spin coupling    2   1  -1

 Printout of coefficients in interval  1.0000E-01 to  3.1623E-01
 ===============================================================

  Coefficient of CSF no.        12 is     -0.26816344   -2.68163441E-01
  Orbital          2   3   4
  Spin coupling    2   1  -1

 Norm of printed CI vector ..      0.99173934

 Magnitude of CI coefficients
 ============================
 ( Ranges are relative to norm of vector :  1.00E+00 )

  10- 1 to 10- 0         2    0.99173934E+00      0.9917393378
  10- 2 to 10- 1         2    0.82606622E-02      1.0000000000
  Number of coefficients less than 10^-11 times norm is           16


 @ Excited state no:   10 in symmetry 1  ( A  ) - singlet excitation
 -------------------------------------------------------------------

@ Excitation energy :   1.2237371     au
@                       33.299580     eV;   268579.24     cm-1;   3212.9212     kJ / mol

@ Total energy :       -74.801207     au

@ Operator label: XDIPLEN ; Transition moment : -1.41343347E-15 au
@ Oscillator strength (LENGTH)   :  1.62984986E-30  (X-polarization)

@ Operator label: YDIPLEN ; Transition moment : -1.02136570E-15 au
@ Oscillator strength (LENGTH)   :  8.51058467E-31  (Y-polarization)

@ Operator label: ZDIPLEN ; Transition moment : -1.22742250E-15 au
@ Oscillator strength (LENGTH)   :  1.22909377E-30  (Z-polarization)
@ Total oscillator strength (LENGTH)   :  3.71000210E-30

 Eigenvector for state no. 10

      Index(conf)                         Z operator          Y operator
      ----------                      --------------      --------------
          20                            0.9956645861        0.0000000000

       19 elements with absolute value ≤ 1.00D-01 are not printed.

 Printout of coefficients in interval  3.1623E-01 to  1.0000E+00
 ===============================================================

  Coefficient of CSF no.        20 is      0.99566459    9.95664586E-01
  Orbital          1   2   3   4
  Spin coupling    1  -1   1  -1

 Printout of coefficients in interval  1.0000E-01 to  3.1623E-01
 ===============================================================
   ( no coefficients )

 Norm of printed CI vector ..      0.99134797

 Magnitude of CI coefficients
 ============================
 ( Ranges are relative to norm of vector :  1.00E+00 )

  10- 1 to 10- 0         1    0.99134797E+00      0.9913479681
  10- 2 to 10- 1         3    0.86520319E-02      1.0000000000
  Number of coefficients less than 10^-11 times norm is           16


 @ Excited state no:   11 in symmetry 1  ( A  ) - singlet excitation
 -------------------------------------------------------------------

@ Excitation energy :   1.2286493     au
@                       33.433248     eV;   269657.35     cm-1;   3225.8182     kJ / mol

@ Total energy :       -74.796295     au

@ Operator label: XDIPLEN ; Transition moment :  1.97362257E-02 au
@ Oscillator strength (LENGTH)   :  3.19054505E-04  (X-polarization)

@ Operator label: YDIPLEN ; Transition moment : -3.39194782E-15 au
@ Oscillator strength (LENGTH)   :  9.42399397E-30  (Y-polarization)

@ Operator label: ZDIPLEN ; Transition moment : -6.15935546E-16 au
@ Oscillator strength (LENGTH)   :  3.10747191E-31  (Z-polarization)
@ Total oscillator strength (LENGTH)   :  3.19054505E-04

 Eigenvector for state no. 11

      Index(conf)                         Z operator          Y operator
      ----------                      --------------      --------------
           2                            0.3366318433        0.0000000000
           3                           -0.1069122757        0.0000000000
           4                            0.8911467839        0.0000000000
           5                           -0.2540319185        0.0000000000
          17                           -0.1271080090        0.0000000000

       15 elements with absolute value ≤ 1.00D-01 are not printed.

 Printout of coefficients in interval  3.1623E-01 to  1.0000E+00
 ===============================================================

  Coefficient of CSF no.         2 is      0.33663184    3.36631843E-01
  Orbital          1   3
  Spin coupling    2   2

  Coefficient of CSF no.         4 is      0.89114678    8.91146784E-01
  Orbital          1   4
  Spin coupling    2   2

 Printout of coefficients in interval  1.0000E-01 to  3.1623E-01
 ===============================================================

  Coefficient of CSF no.         3 is     -0.10691228   -1.06912276E-01
  Orbital          2   3
  Spin coupling    2   2

  Coefficient of CSF no.         5 is     -0.25403192   -2.54031918E-01
  Orbital          2   4
  Spin coupling    2   2

  Coefficient of CSF no.        17 is     -0.12710801   -1.27108009E-01
  Orbital          4   1   3
  Spin coupling    2   1  -1

 Norm of printed CI vector ..      0.99958248

 Magnitude of CI coefficients
 ============================
 ( Ranges are relative to norm of vector :  1.00E+00 )

  10- 1 to 10- 0         5    0.99958248E+00      0.9995824847
  10- 2 to 10- 1         1    0.39311480E-03      0.9999755995
  10- 3 to 10- 2         2    0.24400542E-04      1.0000000000
  Number of coefficients less than 10^-11 times norm is           12


 @ Excited state no:   12 in symmetry 1  ( A  ) - singlet excitation
 -------------------------------------------------------------------

@ Excitation energy :   1.2699858     au
@                       34.558070     eV;   278729.65     cm-1;   3334.3471     kJ / mol

@ Total energy :       -74.754958     au

@ Operator label: XDIPLEN ; Transition moment : -5.91013294E-16 au
@ Oscillator strength (LENGTH)   :  2.95734567E-31  (X-polarization)

@ Operator label: YDIPLEN ; Transition moment : -5.66825812E-16 au
@ Oscillator strength (LENGTH)   :  2.72023752E-31  (Y-polarization)

@ Operator label: ZDIPLEN ; Transition moment : -1.00460815E-02 au
@ Oscillator strength (LENGTH)   :  8.54478194E-05  (Z-polarization)
@ Total oscillator strength (LENGTH)   :  8.54478194E-05

 Eigenvector for state no. 12

      Index(conf)                         Z operator          Y operator
      ----------                      --------------      --------------
          13                           -0.3572764876        0.0000000000
          16                           -0.9282336035        0.0000000000

       18 elements with absolute value ≤ 1.00D-01 are not printed.

 Printout of coefficients in interval  3.1623E-01 to  1.0000E+00
 ===============================================================

  Coefficient of CSF no.        13 is     -0.35727649   -3.57276488E-01
  Orbital          3   1   2
  Spin coupling    2   1  -1

  Coefficient of CSF no.        16 is     -0.92823360   -9.28233604E-01
  Orbital          4   1   2
  Spin coupling    2   1  -1

 Printout of coefficients in interval  1.0000E-01 to  3.1623E-01
 ===============================================================
   ( no coefficients )

 Norm of printed CI vector ..      0.98926411

 Magnitude of CI coefficients
 ============================
 ( Ranges are relative to norm of vector :  1.00E+00 )

  10- 1 to 10- 0         2    0.98926411E+00      0.9892641113
  10- 2 to 10- 1         2    0.10735889E-01      1.0000000000
  Number of coefficients less than 10^-11 times norm is           16


 @ Excited state no:   13 in symmetry 1  ( A  ) - singlet excitation
 -------------------------------------------------------------------

@ Excitation energy :   1.3421108     au
@                       36.520692     eV;   294559.26     cm-1;   3523.7113     kJ / mol

@ Total energy :       -74.682833     au

@ Operator label: XDIPLEN ; Transition moment :  1.19480671E-15 au
@ Oscillator strength (LENGTH)   :  1.27729852E-30  (X-polarization)

@ Operator label: YDIPLEN ; Transition moment : -3.08062297E-02 au
@ Oscillator strength (LENGTH)   :  8.49130033E-04  (Y-polarization)

@ Operator label: ZDIPLEN ; Transition moment :  4.70001258E-16 au
@ Oscillator strength (LENGTH)   :  1.97649238E-31  (Z-polarization)
@ Total oscillator strength (LENGTH)   :  8.49130033E-04

 Eigenvector for state no. 13

      Index(conf)                         Z operator          Y operator
      ----------                      --------------      --------------
           9                            0.2683824909        0.0000000000
          12                            0.9585132615        0.0000000000

       18 elements with absolute value ≤ 1.00D-01 are not printed.

 Printout of coefficients in interval  3.1623E-01 to  1.0000E+00
 ===============================================================

  Coefficient of CSF no.        12 is      0.95851326    9.58513262E-01
  Orbital          2   3   4
  Spin coupling    2   1  -1

 Printout of coefficients in interval  1.0000E-01 to  3.1623E-01
 ===============================================================

  Coefficient of CSF no.         9 is      0.26838249    2.68382491E-01
  Orbital          1   3   4
  Spin coupling    2   1  -1

 Norm of printed CI vector ..      0.99077683

 Magnitude of CI coefficients
 ============================
 ( Ranges are relative to norm of vector :  1.00E+00 )

  10- 1 to 10- 0         2    0.99077683E+00      0.9907768339
  10- 2 to 10- 1         2    0.92231661E-02      1.0000000000
  Number of coefficients less than 10^-11 times norm is           16


 @ Excited state no:   14 in symmetry 1  ( A  ) - singlet excitation
 -------------------------------------------------------------------

@ Excitation energy :   1.3865903     au
@                       37.731042     eV;   304321.40     cm-1;   3640.4923     kJ / mol

@ Total energy :       -74.638354     au

@ Operator label: XDIPLEN ; Transition moment : -6.73614541E-03 au
@ Oscillator strength (LENGTH)   :  4.19449627E-05  (X-polarization)

@ Operator label: YDIPLEN ; Transition moment :  3.63089263E-15 au
@ Oscillator strength (LENGTH)   :  1.21866326E-29  (Y-polarization)

@ Operator label: ZDIPLEN ; Transition moment :  2.08293708E-16 au
@ Oscillator strength (LENGTH)   :  4.01059868E-32  (Z-polarization)
@ Total oscillator strength (LENGTH)   :  4.19449627E-05

 Eigenvector for state no. 14

      Index(conf)                         Z operator          Y operator
      ----------                      --------------      --------------
           3                           -0.3484220289        0.0000000000
           4                           -0.2545462156        0.0000000000
           5                           -0.8939136059        0.0000000000

       17 elements with absolute value ≤ 1.00D-01 are not printed.

 Printout of coefficients in interval  3.1623E-01 to  1.0000E+00
 ===============================================================

  Coefficient of CSF no.         3 is     -0.34842203   -3.48422029E-01
  Orbital          2   3
  Spin coupling    2   2

  Coefficient of CSF no.         5 is     -0.89391361   -8.93913606E-01
  Orbital          2   4
  Spin coupling    2   2

 Printout of coefficients in interval  1.0000E-01 to  3.1623E-01
 ===============================================================

  Coefficient of CSF no.         4 is     -0.25454622   -2.54546216E-01
  Orbital          1   4
  Spin coupling    2   2

 Printout of coefficients in interval  1.0000E-01 to  1.0000E-01
 ===============================================================
   ( no coefficients )

 Norm of printed CI vector ..      0.98527322

 Magnitude of CI coefficients
 ============================
 ( Ranges are relative to norm of vector :  1.00E+00 )

  10- 1 to 10- 0         3    0.98527322E+00      0.9852732209
  10- 2 to 10- 1         4    0.14697416E-01      0.9999706371
  10- 3 to 10- 2         1    0.29362928E-04      1.0000000000
  Number of coefficients less than 10^-11 times norm is           12


 @ Excited state no:   15 in symmetry 1  ( A  ) - singlet excitation
 -------------------------------------------------------------------

@ Excitation energy :   2.0106846     au
@                       54.713510     eV;   441294.25     cm-1;   5279.0515     kJ / mol

@ Total energy :       -74.014260     au

@ Operator label: XDIPLEN ; Transition moment :  5.61286727E-17 au
@ Oscillator strength (LENGTH)   :  4.22301115E-33  (X-polarization)

@ Operator label: YDIPLEN ; Transition moment : -2.38638908E-03 au
@ Oscillator strength (LENGTH)   :  7.63370176E-06  (Y-polarization)

@ Operator label: ZDIPLEN ; Transition moment :  5.09645940E-17 au
@ Oscillator strength (LENGTH)   :  3.48168777E-33  (Z-polarization)
@ Total oscillator strength (LENGTH)   :  7.63370176E-06

 Eigenvector for state no. 15

      Index(conf)                         Z operator          Y operator
      ----------                      --------------      --------------
          14                           -0.9958930612        0.0000000000

       19 elements with absolute value ≤ 1.00D-01 are not printed.

 Printout of coefficients in interval  3.1623E-01 to  1.0000E+00
 ===============================================================

  Coefficient of CSF no.        14 is     -0.99589306   -9.95893061E-01
  Orbital          3   1   4
  Spin coupling    2   1  -1

 Printout of coefficients in interval  1.0000E-01 to  3.1623E-01
 ===============================================================
   ( no coefficients )

 Norm of printed CI vector ..      0.99180299

 Magnitude of CI coefficients
 ============================
 ( Ranges are relative to norm of vector :  1.00E+00 )

  10- 1 to 10- 0         1    0.99180299E+00      0.9918029893
  10- 2 to 10- 1         1    0.81297260E-02      0.9999327153
  10- 3 to 10- 2         2    0.67284727E-04      1.0000000000
  Number of coefficients less than 10^-11 times norm is           16

@ Singlet transition operator label: XDIPLEN 
@ STATE NO:   16 *TRANSITION MOMENT: -2.14611196E-17 *ENERGY(eV):   56.373212    
@ STATE NO:   17 *TRANSITION MOMENT:  1.07153383E-03 *ENERGY(eV):   57.265511    
@ STATE NO:   18 *TRANSITION MOMENT:  5.98085750E-17 *ENERGY(eV):   58.996594    
@ STATE NO:   19 *TRANSITION MOMENT: -3.41435371E-05 *ENERGY(eV):   91.140923    

@ Singlet transition operator label: YDIPLEN 
@ STATE NO:   16 *TRANSITION MOMENT: -3.84693912E-17 *ENERGY(eV):   56.373212    
@ STATE NO:   17 *TRANSITION MOMENT: -2.44017343E-16 *ENERGY(eV):   57.265511    
@ STATE NO:   18 *TRANSITION MOMENT: -1.79527383E-16 *ENERGY(eV):   58.996594    
@ STATE NO:   19 *TRANSITION MOMENT: -4.94389894E-17 *ENERGY(eV):   91.140923    

@ Singlet transition operator label: ZDIPLEN 
@ STATE NO:   16 *TRANSITION MOMENT:  1.17551628E-17 *ENERGY(eV):   56.373212    
@ STATE NO:   17 *TRANSITION MOMENT:  7.61499380E-18 *ENERGY(eV):   57.265511    
@ STATE NO:   18 *TRANSITION MOMENT:  5.51717036E-04 *ENERGY(eV):   58.996594    
@ STATE NO:   19 *TRANSITION MOMENT: -9.88160196E-18 *ENERGY(eV):   91.140923    


 **************************************************************************************
 *** @ Excit. operator sym 1 & ref. state sym 1 => excited state symmetry 1  ( A  ) ***
 **************************************************************************************



 @ Excited state no:   16 in symmetry 1  ( A  ) - singlet excitation
 -------------------------------------------------------------------

@ Excitation energy :   2.0716775     au
@                       56.373212     eV;   454680.65     cm-1;   5439.1884     kJ / mol

@ Total energy :       -73.953267     au

@ Operator label: XDIPLEN ; Transition moment : -2.14611196E-17 au
@ Oscillator strength (LENGTH)   :  6.36114997E-34  (X-polarization)

@ Operator label: YDIPLEN ; Transition moment : -3.84693912E-17 au
@ Oscillator strength (LENGTH)   :  2.04390880E-33  (Y-polarization)

@ Operator label: ZDIPLEN ; Transition moment :  1.17551628E-17 au
@ Oscillator strength (LENGTH)   :  1.90848249E-34  (Z-polarization)
@ Total oscillator strength (LENGTH)   :  2.87087205E-33

 Eigenvector for state no. 16

      Index(conf)                         Z operator          Y operator
      ----------                      --------------      --------------
          15                           -0.9884504820        0.0000000000
          19                            0.1361748452        0.0000000000

       18 elements with absolute value ≤ 1.00D-01 are not printed.

 Printout of coefficients in interval  3.1623E-01 to  1.0000E+00
 ===============================================================

  Coefficient of CSF no.        15 is     -0.98845048   -9.88450482E-01
  Orbital          3   2   4
  Spin coupling    2   1  -1

 Printout of coefficients in interval  1.0000E-01 to  3.1623E-01
 ===============================================================

  Coefficient of CSF no.        19 is      0.13617485    1.36174845E-01
  Orbital          1   2   3   4
  Spin coupling    1   1  -1  -1

 Norm of printed CI vector ..      0.99557794

 Magnitude of CI coefficients
 ============================
 ( Ranges are relative to norm of vector :  1.00E+00 )

  10- 1 to 10- 0         2    0.99557794E+00      0.9955779437
  10- 2 to 10- 1         2    0.44220563E-02      1.0000000000
  Number of coefficients less than 10^-11 times norm is           16


 @ Excited state no:   17 in symmetry 1  ( A  ) - singlet excitation
 -------------------------------------------------------------------

@ Excitation energy :   2.1044689     au
@                       57.265511     eV;   461877.53     cm-1;   5525.2822     kJ / mol

@ Total energy :       -73.920475     au

@ Operator label: XDIPLEN ; Transition moment :  1.07153383E-03 au
@ Oscillator strength (LENGTH)   :  1.61087939E-06  (X-polarization)

@ Operator label: YDIPLEN ; Transition moment : -2.44017343E-16 au
@ Oscillator strength (LENGTH)   :  8.35396478E-32  (Y-polarization)

@ Operator label: ZDIPLEN ; Transition moment :  7.61499380E-18 au
@ Oscillator strength (LENGTH)   :  8.13561444E-35  (Z-polarization)
@ Total oscillator strength (LENGTH)   :  1.61087939E-06

 Eigenvector for state no. 17

      Index(conf)                         Z operator          Y operator
      ----------                      --------------      --------------
           4                            0.1465997758        0.0000000000
           6                           -0.1775392062        0.0000000000
          17                            0.9729855977        0.0000000000

       17 elements with absolute value ≤ 1.00D-01 are not printed.

 Printout of coefficients in interval  3.1623E-01 to  1.0000E+00
 ===============================================================

  Coefficient of CSF no.        17 is      0.97298560    9.72985598E-01
  Orbital          4   1   3
  Spin coupling    2   1  -1

 Printout of coefficients in interval  1.0000E-01 to  3.1623E-01
 ===============================================================

  Coefficient of CSF no.         4 is      0.14659978    1.46599776E-01
  Orbital          1   4
  Spin coupling    2   2

  Coefficient of CSF no.         6 is     -0.17753921   -1.77539206E-01
  Orbital          3   4
  Spin coupling    2   2

 Norm of printed CI vector ..      0.99971264

 Magnitude of CI coefficients
 ============================
 ( Ranges are relative to norm of vector :  1.00E+00 )

  10- 1 to 10- 0         3    0.99971264E+00      0.9997126373
  10- 2 to 10- 1         1    0.25977939E-03      0.9999724167
  10- 3 to 10- 2         3    0.27465889E-04      0.9999998826
  10- 4 to 10- 3         1    0.11737615E-06      1.0000000000
  Number of coefficients less than 10^-11 times norm is           12


 @ Excited state no:   18 in symmetry 1  ( A  ) - singlet excitation
 -------------------------------------------------------------------

@ Excitation energy :   2.1680850     au
@                       58.996594     eV;   475839.65     cm-1;   5692.3063     kJ / mol

@ Total energy :       -73.856859     au

@ Operator label: XDIPLEN ; Transition moment :  5.98085750E-17 au
@ Oscillator strength (LENGTH)   :  5.17025491E-33  (X-polarization)

@ Operator label: YDIPLEN ; Transition moment : -1.79527383E-16 au
@ Oscillator strength (LENGTH)   :  4.65850371E-32  (Y-polarization)

@ Operator label: ZDIPLEN ; Transition moment :  5.51717036E-04 au
@ Oscillator strength (LENGTH)   :  4.39964700E-07  (Z-polarization)
@ Total oscillator strength (LENGTH)   :  4.39964700E-07

 Eigenvector for state no. 18

      Index(conf)                         Z operator          Y operator
      ----------                      --------------      --------------
          16                            0.1058557707        0.0000000000
          18                            0.9943110258        0.0000000000

       18 elements with absolute value ≤ 1.00D-01 are not printed.

 Printout of coefficients in interval  3.1623E-01 to  1.0000E+00
 ===============================================================

  Coefficient of CSF no.        18 is      0.99431103    9.94311026E-01
  Orbital          4   2   3
  Spin coupling    2   1  -1

 Printout of coefficients in interval  1.0000E-01 to  3.1623E-01
 ===============================================================

  Coefficient of CSF no.        16 is      0.10585577    1.05855771E-01
  Orbital          4   1   2
  Spin coupling    2   1  -1

 Norm of printed CI vector ..      0.99985986

 Magnitude of CI coefficients
 ============================
 ( Ranges are relative to norm of vector :  1.00E+00 )

  10- 1 to 10- 0         2    0.99985986E+00      0.9998598602
  10- 2 to 10- 1         1    0.10195713E-03      0.9999618174
  10- 3 to 10- 2         1    0.38182636E-04      1.0000000000
  Number of coefficients less than 10^-11 times norm is           16


 @ Excited state no:   19 in symmetry 1  ( A  ) - singlet excitation
 -------------------------------------------------------------------

@ Excitation energy :   3.3493674     au
@                       91.140923     eV;   735101.17     cm-1;   8793.7627     kJ / mol

@ Total energy :       -72.675577     au

@ Operator label: XDIPLEN ; Transition moment : -3.41435371E-05 au
@ Oscillator strength (LENGTH)   :  2.60308620E-09  (X-polarization)

@ Operator label: YDIPLEN ; Transition moment : -4.94389894E-17 au
@ Oscillator strength (LENGTH)   :  5.45771305E-33  (Y-polarization)

@ Operator label: ZDIPLEN ; Transition moment : -9.88160196E-18 au
@ Oscillator strength (LENGTH)   :  2.18035014E-34  (Z-polarization)
@ Total oscillator strength (LENGTH)   :  2.60308620E-09

 Eigenvector for state no. 19

      Index(conf)                         Z operator          Y operator
      ----------                      --------------      --------------
           6                            0.9840564820        0.0000000000
          17                            0.1763650261        0.0000000000

       18 elements with absolute value ≤ 1.00D-01 are not printed.

 Printout of coefficients in interval  3.1623E-01 to  1.0000E+00
 ===============================================================

  Coefficient of CSF no.         6 is      0.98405648    9.84056482E-01
  Orbital          3   4
  Spin coupling    2   2

 Printout of coefficients in interval  1.0000E-01 to  3.1623E-01
 ===============================================================

  Coefficient of CSF no.        17 is      0.17636503    1.76365026E-01
  Orbital          4   1   3
  Spin coupling    2   1  -1

 Printout of coefficients in interval  1.0000E-01 to  1.0000E-01
 ===============================================================
   ( no coefficients )

 Norm of printed CI vector ..      0.99947178

 Magnitude of CI coefficients
 ============================
 ( Ranges are relative to norm of vector :  1.00E+00 )

  10- 1 to 10- 0         2    0.99947178E+00      0.9994717822
  10- 2 to 10- 1         1    0.46289868E-03      0.9999346809
  10- 3 to 10- 2         3    0.65049063E-04      0.9999997299
  10- 4 to 10- 3         1    0.26076001E-06      0.9999999907
  10- 5 to 10- 4         1    0.93070051E-08      1.0000000000
  Number of coefficients less than 10^-11 times norm is           12


 Time used in polarization propagator calculation is      0.01 CPU seconds for symmetry 1

  Total CPU  time used in RESPONSE:   0.02 seconds
  Total wall time used in RESPONSE:   0.16 seconds


                   .-------------------------------------------.
                   | End of Dynamic Property Section (RESPONS) |
                   `-------------------------------------------'

  Total CPU  time used in DALTON:   0.14 seconds
  Total wall time used in DALTON:   1.21 seconds

 NOTE:    1 warnings have been issued.
 Check output, result, and error files for "WARNING".

 
     Date and time (Linux)  : Tue Jul  7 15:27:00 2026
     Host name              : n-62-31-22                              
