

     ************************************************************************
     *************** Dalton - An Electronic Structure Program ***************
     ************************************************************************

    This is output from DALTON release Dalton2024.0-dev (2024)
         ( Web site: http://daltonprogram.org )

   ----------------------------------------------------------------------------

    NOTE:
     
    Dalton is an experimental code for the evaluation of molecular
    properties using (MC)SCF, DFT, CI, and CC wave functions.
    The authors accept no responsibility for the performance of
    the code or for the correctness of the results.
     
    The code (in whole or part) is provided under a licence and
    is not to be reproduced for further distribution without
    the written permission of the authors or their representatives.
     
    See the home page "http://daltonprogram.org" for further information.
     
    If results obtained with this code are published,
    the appropriate citations would be both of:
     
       K. Aidas, C. Angeli, K. L. Bak, V. Bakken,
       R. Bast, L. Boman, O. Christiansen, R. Cimiraglia,
       S. Coriani, P. Dahle, E. K. Dalskov, U. Ekstroem,
       T. Enevoldsen, J. J. Eriksen, P. Ettenhuber, B. Fernandez,
       L. Ferrighi, H. Fliegl, L. Frediani, K. Hald, A. Halkier,
       C. Haettig, H. Heiberg, T. Helgaker, A. C. Hennum,
       H. Hettema, E. Hjertenaes, S. Hoest, I.-M. Hoeyvik,
       M. F. Iozzi, B. Jansik, H. J. Aa. Jensen, D. Jonsson,
       P. Joergensen, J. Kauczor, S. Kirpekar,
       T. Kjaergaard, W. Klopper, S. Knecht, R. Kobayashi, H. Koch,
       J. Kongsted, A. Krapp, K. Kristensen, A. Ligabue,
       O. B. Lutnaes, J. I. Melo, K. V. Mikkelsen, R. H. Myhre,
       C. Neiss, C. B. Nielsen, P. Norman, J. Olsen,
       J. M. H. Olsen, A. Osted, M. J. Packer, F. Pawlowski,
       T. B. Pedersen, P. F. Provasi, S. Reine, Z. Rinkevicius,
       T. A. Ruden, K. Ruud, V. Rybkin, P. Salek, C. C. M. Samson,
       A. Sanchez de Meras, T. Saue, S. P. A. Sauer,
       B. Schimmelpfennig, K. Sneskov, A. H. Steindal,
       K. O. Sylvester-Hvid, P. R. Taylor, A. M. Teale,
       E. I. Tellgren, D. P. Tew, A. J. Thorvaldsen, L. Thoegersen,
       O. Vahtras, M. A. Watson, D. J. D. Wilson, M. Ziolkowski
       and H. Agren,
       "The Dalton quantum chemistry program system",
       WIREs Comput. Mol. Sci. 2014, 4:269-284 (doi: 10.1002/wcms.1172)
     
    and
     
       Dalton, a molecular electronic structure program,
       Release Dalton2024.0-dev (2024), see http://daltonprogram.org
   ----------------------------------------------------------------------------

    Authors in alphabetical order (Major contribution(s) in parenthesis):

  Kestutis Aidas,              Vilnius University,        Lithuania   (QM/MM)
  Celestino Angeli,            University of Ferrara,     Italy       (NEVPT2)
  Juan J. Aucar,               Northeast National UniversiArgentina   (LRESC, Relativistic Effects on EFG)
  Keld L. Bak,                 UNI-C,                     Denmark     (AOSOPPA, non-adiabatic coupling, magnetic properties)
  Vebjoern Bakken,             University of Oslo,        Norway      (DALTON; geometry optimizer, symmetry detection)
  Radovan Bast,                UiT The Arctic U. of NorwayNorway      (DALTON installation and execution frameworks)
  Pablo Baudin,                University of Valencia,    Spain       (Cholesky excitation energies)
  Linus Boman,                 NTNU,                      Norway      (Cholesky decomposition and subsystems)
  Bruno N. Cabral Tenorio,     Technical Univ. of Denmark,Denmark     (Lanczos-based CC methods)
  Ove Christiansen,            Aarhus University,         Denmark     (CC module)
  Renzo Cimiraglia,            University of Ferrara,     Italy       (NEVPT2)
  Sonia Coriani,               Technical Univ. of Denmark,Denmark     (CC and RESPONS modules)
  Janusz Cukras,               University of Warsaw,      Poland      (MChD in RESPONS)
  Paal Dahle,                  University of Oslo,        Norway      (Parallelization)
  Erik K. Dalskov,             UNI-C,                     Denmark     (SOPPA)
  Thomas Enevoldsen,           Univ. of Southern Denmark, Denmark     (SOPPA)
  Janus J. Eriksen,            Aarhus University,         Denmark     (Polarizable embedding, TDA)
  Rasmus Faber,                Technical Univ. of Denmark,Denmark     (Vib.avg. NMR w. SOPPA, parallel AO-SOPPA, CVS-CC and EOMCC)
  Tobias Fahleson,             KTH Stockholm,             Sweden      (Damped cubic response)
  Berta Fernandez,             U. of Santiago de CompostelSpain       (Doublet spin, ESR in RESPONS)
  Lara Ferrighi,               Aarhus University,         Denmark     (PCM Cubic response)
  Heike Fliegl,                University of Oslo,        Norway      (CCSD(R12))
  Luca Frediani,               UiT The Arctic U. of NorwayNorway      (PCM)
  Emmanuel Fromager,           Univ. Strasbourg,          France      (MC-srDFT)
  Bin Gao,                     UiT The Arctic U. of NorwayNorway      (Gen1Int library)
  Andre S. P. Gomes,           CNRS/Universite de Lille,  France      (Frozen density embedding)
  Christof Haettig,            Ruhr-University Bochum,    Germany     (CC module)
  Kasper Hald,                 Aarhus University,         Denmark     (CC module)
  Asger Halkier,               Aarhus University,         Denmark     (CC module)
  Frederik Beyer Hansen,       University of Copenhagen,  Denmark     (Parallel AO-SOPPA)
  Erik D. Hedegaard,           Univ. of Southern Denmark, Denmark     (Polarizable embedding, QM/MM, and MC-srDFT)
  Hanne Heiberg,               University of Oslo,        Norway      (Geometry analysis, selected one-electron integrals)
  Trygve Helgaker,             University of Oslo,        Norway      (DALTON; ABACUS, ERI, DFT modules, London, and much more)
  Alf Christian Hennum,        University of Oslo,        Norway      (Parity violation)
  Hinne Hettema,               University of Auckland,    New Zealand (Quadratic response in RESPONS; SIRIUS supersymmetry)
  Andreas E. Hillers-Bendtsen, University of Copenhagen,  Denmark     (MP3)
  Eirik Hjertenaes,            NTNU,                      Norway      (Cholesky decomposition)
  Nicolai Machholdt Hoeyer,    Aarhus University,         Denmark     (MP3)
  Pi A. B. Haase,              University of Copenhagen,  Denmark     (Triplet AO-SOPPA)
  Maria Francesca Iozzi,       University of Oslo,        Norway      (RPA)
  Christoph Jacob,             TU Braunschweig            Germany     (Frozen density embedding)
  Brano Jansik,                Technical Univ. of Ostrava Czech Rep.  (DFT cubic response)
  Hans Joergen Aa. Jensen,     Univ. of Southern Denmark, Denmark     (DALTON; SIRIUS, RESPONS, ABACUS, MC-srDFT, and much more)
  Dan Jonsson,                 UiT The Arctic U. of NorwayNorway      (Cubic response in RESPONS module)
  Poul Joergensen,             Aarhus University,         Denmark     (RESPONS, ABACUS, and CC modules)
  Maciej Kaminski,             University of Warsaw,      Poland      (CPPh in RESPONS)
  Joanna Kauczor,              Linkoeping University,     Sweden      (Complex polarization propagator (CPP) module)
  Sheela Kirpekar,             Univ. of Southern Denmark, Denmark     (Mass-velocity & Darwin integrals)
  Frederik Oersted Kjeldal,    Technical Univ. of Denmark,Denmark     (MP3)
  Erik Kjellgren,              Univ. of Southern Denmark, Denmark     (MC-srDFT)
  Wim Klopper,                 KIT Karlsruhe,             Germany     (R12 code in CC, SIRIUS, and ABACUS modules)
  Stefan Knecht,               ETH Zurich,                Switzerland (Parallel CI and MCSCF, MC-srDFT)
  Rika Kobayashi,              Australian National Univ., Australia   (DIIS in CC, London in MCSCF)
  Henrik Koch,                 NTNU,                      Norway      (CC module, Cholesky decomposition)
  Jacob Kongsted,              Univ. of Southern Denmark, Denmark     (Polarizable embedding, polarizable density embedding, QM/MM)
  Andrea Ligabue,              University of Modena,      Italy       (CTOCD, AOSOPPA)
  Nanna H. List,               Univ. of Southern Denmark, Denmark     (Polarizable embedding)
  Ola B. Lutnaes,              University of Oslo,        Norway      (DFT Hessian)
  Juan I. Melo,                University of Buenos Aires,Argentina   (LRESC, Relativistic Effects on NMR Shieldings)
  Kurt V. Mikkelsen,           University of Copenhagen,  Denmark     (MC-SCRF, QM/MM, and MP3)
  Rolf H. Myhre,               NTNU,                      Norway      (Subsystems and CC3)
  Christian Neiss,             Univ. Erlangen-Nuernberg,  Germany     (CCSD(R12))
  Christian B. Nielsen,        University of Copenhagen,  Denmark     (QM/MM)
  Patrick Norman,              KTH Stockholm,             Sweden      (Cubic response and complex frequency response in RESPONS)
  Jeppe Olsen,                 Aarhus University,         Denmark     (SIRIUS CI/density modules)
  Jogvan Magnus H. Olsen,      Aarhus University,         Denmark     (Polarizable embedding and polarizable density embedding)
  Anders Osted,                Copenhagen University,     Denmark     (QM/MM)
  Martin J. Packer,            University of Sheffield,   UK          (SOPPA)
  Filip Pawlowski,             Kazimierz Wielki UniversityPoland      (CC3)
  Morten N. Pedersen,          Univ. of Southern Denmark, Denmark     (Polarizable embedding)
  Thomas B. Pedersen,          University of Oslo,        Norway      (Cholesky decomposition)
  Patricio F. Provasi,         University of Northeastern,Argentina   (Analysis of coupling constants in localized orbitals)
  Peter Reinholdt,             Univ. of Southern Denmark, Denmark     (Polarizable embedding and polarizable density embedding)
  Zilvinas Rinkevicius,        KTH Stockholm,             Sweden      (open-shell DFT, ESR)
  Elias Rudberg,               KTH Stockholm,             Sweden      (DFT grid and basis info)
  Torgeir A. Ruden,            University of Oslo,        Norway      (Numerical derivatives in ABACUS)
  Kenneth Ruud,                UiT The Arctic U. of NorwayNorway      (DALTON; ABACUS magnetic properties and much more)
  Pawel Salek,                 KTH Stockholm,             Sweden      (DALTON; DFT code)
  Claire C. M. Samson,         University of Karlsruhe    Germany     (Boys localization, r12 integrals in ERI)
  Alfredo Sanchez de Meras,    University of Valencia,    Spain       (CC module, Cholesky decomposition)
  Trond Saue,                  Paul Sabatier University,  France      (direct Fock matrix construction)
  Stephan P. A. Sauer,         University of Copenhagen,  Denmark     (SOPPA(CCSD), SOPPA prop., AOSOPPA, vibrational g-factors)
  Bernd Schimmelpfennig,       Forschungszentrum KarlsruheGermany     (AMFI module)
  Anna K. Schnack-Petersen,    University of Copenhagen,  Denmark     (RPA(D) and HRPA(D) properties in AOSOPPA)
  Kristian Sneskov,            Aarhus University,         Denmark     (Polarizable embedding, QM/MM)
  Arnfinn H. Steindal,         UiT The Arctic U. of NorwayNorway      (parallel QM/MM, polarizable embedding)
  Casper Steinmann,            Aalborg University,        Denmark     (QFIT, polarizable embedding)
  K. O. Sylvester-Hvid,        University of Copenhagen,  Denmark     (MC-SCRF)
  Peter R. Taylor,             VLSCI/Univ. of Melbourne,  Australia   (Symmetry handling ABACUS, integral transformation)
  Andrew M. Teale,             University of Nottingham,  England     (DFT-AC, DFT-D)
  David P. Tew,                University of Bristol,     England     (CCSD(R12))
  Julien Toulouse,             Sorbonne Univ.,            France      (MC-srDFT)
  Olav Vahtras,                KTH Stockholm,             Sweden      (Triplet response, spin-orbit, ESR, TDDFT, open-shell DFT)
  Lucas Visscher,              Vrije Universiteit AmsterdaNetherlands (Frozen density embedding)
  David J. Wilson,             La Trobe University,       Australia   (DFT Hessian and DFT magnetizabilities)
  Luna Zamok,                  University of Copenhagen,  Denmark     (Block Lanczos RPA solver in SOPPA module)
  Hans Agren,                  KTH Stockholm,             Sweden      (SIRIUS module, RESPONS, MC-SCRF solvation)
 --------------------------------------------------------------------------------

     Date and time (Linux)  : Wed Jul  8 13:19:27 2026
     Host name              : n-62-31-23                              

 * Work memory size             :   512000000 =  3.815 gigabytes.

 * Directories for basis set searches:
   1) /work3/jochar/DaltonTests
   2) /zhome/d7/7/119775/My_Codes/Dalton_Release/dalton/build_omp_nov24/basis


Compilation information
-----------------------

 Who compiled             | soco
 Host                     | hpclogin1
 System                   | Linux-6.1.112-1.el9.elrepo.x86_64
 CMake generator          | Unix Makefiles
 Processor                | x86_64
 64-bit integers          | OFF
 MPI                      | OFF
 Fortran compiler         | /appl/intel/2023.2.0.49397/compiler/2023.2.0/linux
                          | /bin/intel64/ifort
 Fortran compiler version | ifort (IFORT) 2021.10.0 20230609
 C compiler               | /appl/intel/2023.2.0.49397/compiler/2023.2.0/linux
                          | /bin/intel64/icc
 C compiler version       | icc (ICC) 2021.10.0 20230609
 C++ compiler             | /appl/intel/2023.2.0.49397/compiler/2023.2.0/linux
                          | /bin/intel64/icpc
 C++ compiler version     | icpc (ICC) 2021.10.0 20230609
 Static linking           | OFF
 Last Git revision        | a531ac4fbf115ebda1c90140ce3fd6aa236a2033
 Git branch               | master
 Configuration time       | 2024-11-14 11:23:30.470039

 * Sequential calculation.


   Content of the .dal input file
 ----------------------------------

**DALTON INPUT
.RUN WAVE FUNCTIONS   !tipo di calcolo
.RUN RESPONSE
**INTEGRALS
.DIPLEN               !integrali dell'operatore dipolo elettrico
**WAVE FUNCTION
.HF
.CI
!*PRINT
!.PRINTL
!   0 11
*SCF INP              !parte da Hartree-Fock
.DOUBLY OCCUPIED
2 0 0 0 1 0 0 0
.THRESH               !soglia di convergenza
 1.0D-10
*CONFIGURATION INPUT
.SPIN MULTIPLICITY
1
.SYMMETRY
1
.INACTIVE ORBITALS !the inner electrons are kept frozen
0 0 0 0 0 0 0 0
.CAS SPACE
3 1 1 0 2 0 0 0
.ELECTRONS
6
**RESPONS
*LINEAR
.THCLR
1.0d-9
.THCPP
1.0d-9
.DIPLEN
.SINGLE RESIDUE
.ROOTS
300 300 300 300 300 300 300 300
**END OF INPUT


   Content of the .mol file
 ----------------------------

BASIS
cc-pVDZ
test VQE
dalton test
Atomtypes=2 Angstrom
Charge=4.0 Atoms=1
Be    0.0000000000000000  0.0000000000000000  0.0
Charge=1.0 Atoms=2
H     1.3300000000000000  0.0000000000000000  0.0
H    -1.3300000000000000  0.0000000000000000  0.0


       *******************************************************************
       *********** Output from DALTON general input processing ***********
       *******************************************************************

 --------------------------------------------------------------------------------
   Overall default print level:    0
   Print level for DALTON.STAT:    1

    HERMIT 1- and 2-electron integral sections will be executed
    "Old" integral transformation used (limited to max 255 basis functions)
    Wave function sections will be executed (SIRIUS module)
    Dynamic molecular response properties section will be executed (RESPONSE module)
 --------------------------------------------------------------------------------


   ****************************************************************************
   *************** Output of molecule and basis set information ***************
   ****************************************************************************


    The two title cards from your ".mol" input:
    --------------------------------------------------------------------------------
 1: test VQE
 2: dalton test
    --------------------------------------------------------------------------------

  Coordinates are entered in Angstrom and converted to atomic units.
          - Conversion factor : 1 bohr = 0.52917721 A

  Atomic type no.    1
  --------------------
  Nuclear charge:   4.00000
  Number of symmetry independent centers:    1
  Number of basis sets to read;    2
  Basis set file used for this atomic type with Z =   4 :
     "/zhome/d7/7/119775/My_Codes/Dalton_Release/dalton/build_omp_nov24/basis/cc-pVDZ"

  Atomic type no.    2
  --------------------
  Nuclear charge:   1.00000
  Number of symmetry independent centers:    2
  Number of basis sets to read;    2
  Basis set file used for this atomic type with Z =   1 :
     "/zhome/d7/7/119775/My_Codes/Dalton_Release/dalton/build_omp_nov24/basis/cc-pVDZ"


                      SYMADD: Requested addition of symmetry
                      --------------------------------------

 Symmetry test threshold:  5.00E-06

@  The molecule has been centered at center of mass and rotated
@  so the principal axes of inertia are along coordinate axes.

 Symmetry class found: D(oo,h)        

 Symmetry Independent Centres             
 ----------------------------
Be     4 :      0.00000000     0.00000000     0.00000000  Isotope  1
H      1 :      0.00000000     0.00000000     2.51333575  Isotope  1

 The following symmetry elements were found:   X  Y  Z  


                         SYMGRP: Point group information
                         -------------------------------

@    Full point group is: D(oo,h)        
@    Represented as:      D2h

@  * The irrep name for each symmetry:    1: Ag     2: B3u    3: B2u    4: B1g    5: B1u    6: B2g    7: B3g    8: Au 


   * The point group was generated by:

      Reflection in the yz-plane
      Reflection in the xz-plane
      Reflection in the xy-plane

   * Group multiplication table

        |  E   C2z  C2y  C2x   i   Oxy  Oxz  Oyz
   -----+----------------------------------------
     E  |  E   C2z  C2y  C2x   i   Oxy  Oxz  Oyz
    C2z | C2z   E   C2x  C2y  Oxy   i   Oyz  Oxz
    C2y | C2y  C2x   E   C2z  Oxz  Oyz   i   Oxy
    C2x | C2x  C2y  C2z   E   Oyz  Oxz  Oxy   i 
     i  |  i   Oxy  Oxz  Oyz   E   C2z  C2y  C2x
    Oxy | Oxy   i   Oyz  Oxz  C2z   E   C2x  C2y
    Oxz | Oxz  Oyz   i   Oxy  C2y  C2x   E   C2z
    Oyz | Oyz  Oxz  Oxy   i   C2x  C2y  C2z   E 

   * Character table

        |  E   C2z  C2y  C2x   i   Oxy  Oxz  Oyz
   -----+----------------------------------------
    Ag  |   1    1    1    1    1    1    1    1
    B3u |   1   -1   -1    1   -1    1    1   -1
    B2u |   1   -1    1   -1   -1    1   -1    1
    B1g |   1    1   -1   -1    1    1   -1   -1
    B1u |   1    1   -1   -1   -1   -1    1    1
    B2g |   1   -1    1   -1    1   -1    1   -1
    B3g |   1   -1   -1    1    1   -1   -1    1
    Au  |   1    1    1    1   -1   -1   -1   -1

   * Direct product table

        | Ag   B3u  B2u  B1g  B1u  B2g  B3g  Au 
   -----+----------------------------------------
    Ag  | Ag   B3u  B2u  B1g  B1u  B2g  B3g  Au 
    B3u | B3u  Ag   B1g  B2u  B2g  B1u  Au   B3g
    B2u | B2u  B1g  Ag   B3u  B3g  Au   B1u  B2g
    B1g | B1g  B2u  B3u  Ag   Au   B3g  B2g  B1u
    B1u | B1u  B2g  B3g  Au   Ag   B3u  B2u  B1g
    B2g | B2g  B1u  Au   B3g  B3u  Ag   B1g  B2u
    B3g | B3g  Au   B1u  B2g  B2u  B1g  Ag   B3u
    Au  | Au   B3g  B2g  B1u  B1g  B2u  B3u  Ag 


                                 Isotopic Masses
                                 ---------------

                           Be          9.012183
                           H   _1      1.007825
                           H   _2      1.007825

                       Total mass:    11.027833 amu
                       Natural abundance:  99.970 %

 Center-of-mass coordinates (a.u.):    0.000000    0.000000    0.000000
 Center-of-mass coordinates (Angs):    0.000000    0.000000    0.000000


  Atoms and basis sets
  --------------------

  Number of atom types :    2
  Total number of atoms:    3

  Basis set used is "cc-pVDZ" from the basis set library.

  label    atoms   charge   prim   cont     basis
  ----------------------------------------------------------------------
  Be          1    4.0000    26    14      [9s4p1d|3s2p1d]                                    
  H           2    1.0000     7     5      [4s1p|2s1p]                                        
  ----------------------------------------------------------------------
  total:      3    6.0000    40    24
  ----------------------------------------------------------------------
  Spherical harmonic basis used.

  Threshold for neglecting AO integrals:  1.00D-12


  Cartesian Coordinates (a.u.)
  ----------------------------

  Total number of coordinates:    9
  Be      :     1  x   0.0000000000    2  y   0.0000000000    3  z   0.0000000000
  H   / 1 :     4  x   0.0000000000    5  y   0.0000000000    6  z   2.5133357462
  H   / 2 :     7  x   0.0000000000    8  y   0.0000000000    9  z  -2.5133357462


  Symmetry Coordinates
  --------------------

  Number of coordinates in each symmetry:     1    2    2    0    2    1    1    0

  Symmetry  Ag  ( 1)

    1   H     z    [  6  -    9 ]/2

  Symmetry  B3u ( 2)

    2   Be    x    1
    3   H     x    [  4  +    7 ]/2

  Symmetry  B2u ( 3)

    4   Be    y    2
    5   H     y    [  5  +    8 ]/2

  Symmetry  B1u ( 5)

    6   Be    z    3
    7   H     z    [  6  +    9 ]/2

  Symmetry  B2g ( 6)

    8   H     x    [  4  -    7 ]/2

  Symmetry  B3g ( 7)

    9   H     y    [  5  -    8 ]/2


   Interatomic separations (in Angstrom):
   --------------------------------------

            Be          H   _1      H   _2
            ------      ------      ------
 Be    :    0.000000
 H   _1:    1.330000    0.000000
 H   _2:    1.330000    2.660000    0.000000


  Max    interatomic separation is    2.6600 Angstrom (    5.0267 Bohr)
  between atoms    3 and    2, "H   _2" and "H   _1".

  Min HX interatomic separation is    1.3300 Angstrom (    2.5133 Bohr)


  Bond distances (Angstrom):
  --------------------------

                  atom 1     atom 2       distance
                  ------     ------       --------
  bond distance:  H   _1     Be           1.330000
  bond distance:  H   _2     Be           1.330000


  Bond angles (degrees):
  ----------------------

                  atom 1     atom 2     atom 3         angle
                  ------     ------     ------         -----
  bond angle:     H   _1     Be         H   _2       180.000




 Principal moments of inertia (u*A**2) and principal axes
 --------------------------------------------------------

   IA       0.000000          0.000000    0.000000    1.000000
   IB       3.565483          0.000000    1.000000    0.000000
   IC       3.565483          1.000000    0.000000    0.000000


 Rotational constants
 --------------------

@    The molecule is linear.

               B =       141742.08 MHz     (    4.728007 cm-1)


@  Nuclear repulsion energy :    3.381959617895 Hartree


  Symmetry Orbitals
  -----------------

  Number of orbitals in each symmetry:           8    3    3    1    5    2    2    0


  Symmetry  Ag ( 1)

    1     Be       1s         1
    2     Be       1s         2
    3     Be       1s         3
    4     Be       3d0       12
    5     Be       3d2+      14
    6     H        1s        15 +   16
    7     H        1s        17 +   18
    8     H        2pz       23 -   24


  Symmetry  B3u( 2)

    9     Be       2px        4
   10     Be       2px        7
   11     H        2px       19 +   20


  Symmetry  B2u( 3)

   12     Be       2py        5
   13     Be       2py        8
   14     H        2py       21 +   22


  Symmetry  B1g( 4)

   15     Be       3d2-      10


  Symmetry  B1u( 5)

   16     Be       2pz        6
   17     Be       2pz        9
   18     H        1s        15 -   16
   19     H        1s        17 -   18
   20     H        2pz       23 +   24


  Symmetry  B2g( 6)

   21     Be       3d1+      13
   22     H        2px       19 -   20


  Symmetry  B3g( 7)

   23     Be       3d1-      11
   24     H        2py       21 -   22


  No orbitals in symmetry  Au ( 8)

  Symmetries of electric field:  B3u(2)  B2u(3)  B1u(5)

  Symmetries of magnetic field:  B3g(7)  B2g(6)  B1g(4)


                     .---------------------------------------.
                     | Starting in Integral Section (HERMIT) |
                     `---------------------------------------'



 ***************************************************************************************
 ****************** Output from **INTEGRALS input processing (HERMIT) ******************
 ***************************************************************************************



    *************************************************************************
    ****************** Output from HERMIT input processing ******************
    *************************************************************************


 Default print level:        1

 Calculation of one- and two-electron Hamiltonian integrals.

 The following one-electron property integrals are calculated as requested:
          - overlap integrals
          - dipole length integrals

 Center of mass  (bohr):      0.000000000000      0.000000000000      0.000000000000
 Operator center (bohr):      0.000000000000      0.000000000000      0.000000000000
 Gauge origin    (bohr):      0.000000000000      0.000000000000      0.000000000000
 Dipole origin   (bohr):      0.000000000000      0.000000000000      0.000000000000

Calculation of 2-electron integrals are postponed until they are needed.


     ************************************************************************
     ************************** Output from HERINT **************************
     ************************************************************************



                      Nuclear contribution to dipole moments
                      --------------------------------------

                    All dipole components are zero by symmetry


  Total CPU  time used in HERMIT:   0.01 seconds
  Total wall time used in HERMIT:   0.04 seconds


                        .----------------------------------.
                        | End of Integral Section (HERMIT) |
                        `----------------------------------'



                   .--------------------------------------------.
                   | Starting in Wave Function Section (SIRIUS) |
                   `--------------------------------------------'


     WARNING  Reference state is required for CI response and CI-NO
     WARNING  ".STATE" was not specified for "*CI INPUT",
     WARNING  the reference state is set to be state no.  1

 *** Output from Huckel module :

     Using EWMO model:          F
     Using EHT  model:          T
     Number of Huckel orbitals each symmetry:    3    1    1    0    2    0    0    0

 Huckel EHT eigenvalues for symmetry :  1
           -4.748538      -0.663015      -0.161126

 Huckel EHT eigenvalues for symmetry :  2
           -0.206000

 Huckel EHT eigenvalues for symmetry :  3
           -0.206000

 Huckel EHT eigenvalues for symmetry :  5
           -0.588245      -0.087076

 **********************************************************************
 *SIRIUS* a direct, restricted step, second order MCSCF program       *
 **********************************************************************

 
     Date and time (Linux)  : Wed Jul  8 13:19:28 2026
     Host name              : n-62-31-23                              

 Title lines from ".mol" input file:
     test VQE
     dalton test

 Print level on unit LUPRI =   2 is   0
 Print level on unit LUW4  =   2 is   5

@    Configuration interaction calculation.

@    CI response calculation.

@    CI type: user specified active spaces.
@              Type: complete active space calculation (CAS).

@    This is a combination run starting with
@              a restricted, closed shell Hartree-Fock calculation


 Initial molecular orbitals are obtained according to
 ".MOSTART EHT   " input option

     Wave function specification
     ============================
@    Wave function type        --- CI ---
@    Number of closed shell electrons           0
@    Number of electrons in active shells       6
@    Total charge of the molecule               0

@    Spin multiplicity and 2 M_S                1         0
@    Total number of symmetries                 8 (point group: D2h)
@    Reference state symmetry                   1 (irrep name : Ag )

     Orbital specifications
     ======================
@    Abelian symmetry species          All |    1    2    3    4    5    6    7    8
@                                          |  Ag   B3u  B2u  B1g  B1u  B2g  B3g  Au 
                                       --- |  ---  ---  ---  ---  ---  ---  ---  ---
@    Inactive orbitals                   0 |    0    0    0    0    0    0    0    0
@    Active orbitals                     7 |    3    1    1    0    2    0    0    0
@    Secondary orbitals                 17 |    5    2    2    1    3    2    2    0
@    Total number of orbitals           24 |    8    3    3    1    5    2    2    0
@    Number of basis functions          24 |    8    3    3    1    5    2    2    0

      -- Initial occupation of symmetries is determined from user input.                      
      -- Initial occupation of symmetries is :
@    Occupied SCF orbitals               3 |    2    0    0    0    1    0    0    0

     Optimization information
     ========================
@    Number of configurations                93
@    Number of orbital rotations              0
     ------------------------------------------
@    Total number of variables               93

     Maximum number of CI iterations         25
     Threshold for CI convergence      1.00D-05
     Number of CI roots to converge           1

@    Reference state in CI response calculation :       1


 ***********************************************
 ***** DIIS acceleration of SCF iterations *****
 ***********************************************

 C1-DIIS algorithm; max error vectors =    8

 Iter      Total energy        Error norm    Delta(E)  DIIS dim.
 -----------------------------------------------------------------------------

Calculating AOSUPINT

---> (Re)generating AOTWOINT


     ************************************************************************
     ************************** Output from HERINT **************************
     ************************************************************************


 Threshold for neglecting two-electron integrals:  1.00D-12
 HERMIT - Number of two-electron integrals written:        6247 ( 13.8% )
 HERMIT - Megabytes written:                              0.137

     (Precalculated AO two-electron integrals are transformed to P-supermatrix elements.
      Threshold for discarding integrals :  1.00D-12 )

@  1    -15.7332487267        5.81631D-01   -1.57D+01    1
      Virial theorem: -V/T =      2.004718
@    MULPOP   Be      0.56; H   _1 -0.28; H   _2 -0.28; 
   1  Level shift: doubly occupied orbital energies shifted by -2.00D-01
 -----------------------------------------------------------------------------
@  2    -15.7647639759        1.34967D-01   -3.15D-02    2
      Virial theorem: -V/T =      2.003167
@    MULPOP   Be      0.29; H   _1 -0.15; H   _2 -0.15; 
   2  Level shift: doubly occupied orbital energies shifted by -5.00D-02
 -----------------------------------------------------------------------------
@  3    -15.7672720148        1.54618D-02   -2.51D-03    3
      Virial theorem: -V/T =      2.000638
@    MULPOP   Be      0.22; H   _1 -0.11; H   _2 -0.11; 
   3  Level shift: doubly occupied orbital energies shifted by -1.25D-02
 -----------------------------------------------------------------------------
@  4    -15.7673186783        1.57676D-03   -4.67D-05    4
      Virial theorem: -V/T =      2.000128
@    MULPOP   Be      0.22; H   _1 -0.11; H   _2 -0.11; 
 -----------------------------------------------------------------------------
@  5    -15.7673192248        1.23539D-04   -5.47D-07    5
      Virial theorem: -V/T =      2.000102
@    MULPOP   Be      0.22; H   _1 -0.11; H   _2 -0.11; 
 -----------------------------------------------------------------------------
@  6    -15.7673192276        7.12006D-06   -2.80D-09    6
      Virial theorem: -V/T =      2.000103
@    MULPOP   Be      0.22; H   _1 -0.11; H   _2 -0.11; 
 -----------------------------------------------------------------------------
@  7    -15.7673192276        8.82718D-07   -7.73D-12    7
      Virial theorem: -V/T =      2.000104
@    MULPOP   Be      0.22; H   _1 -0.11; H   _2 -0.11; 
 -----------------------------------------------------------------------------
@  8    -15.7673192276        7.05250D-08   -1.63D-13    8
      Virial theorem: -V/T =      2.000104
@    MULPOP   Be      0.22; H   _1 -0.11; H   _2 -0.11; 
 -----------------------------------------------------------------------------
@  9    -15.7673192276        3.12279D-09    0.00D+00    8
      Virial theorem: -V/T =      2.000104
@    MULPOP   Be      0.22; H   _1 -0.11; H   _2 -0.11; 
 -----------------------------------------------------------------------------
@ 10    -15.7673192276        3.51860D-10   -7.11D-15    8
      Virial theorem: -V/T =      2.000104
@    MULPOP   Be      0.22; H   _1 -0.11; H   _2 -0.11; 
 -----------------------------------------------------------------------------
@ 11    -15.7673192276        5.22976D-11   -2.13D-14    8

@ *** DIIS converged in  11 iterations !
@     Converged SCF energy, gradient:    -15.767319227642    5.23D-11
    - total time used in SIRFCK :              0.00 seconds

 --- Writing SIRIFC interface file

--------------------------------------------------------------------------------


     .--------------------------------------------------.
     | HF-SCF KT IPs [a.u. & eV] from Koopmans' theorem |
     `--------------------------------------------------'


     HF-SCF KT symmetry 1 ( Ag ) in point group D2h -- 2 principal poles with pole strength 1

   ============  ============
       4.679745      0.488952
     127.342350     13.305069
   ============  ============

     HF-SCF KT symmetry 5 ( B1u) in point group D2h -- 1 principal poles with pole strength 1

   ============
       0.446625
      12.153289
   ============

@ Summary of HF-SCF KT ionization potentials [eV]:

@ Symmetry 1 (Ag ) :   127.342      13.305

@ Symmetry 2 (B3u) :  No IPs in this symmetry

@ Symmetry 3 (B2u) :  No IPs in this symmetry

@ Symmetry 4 (B1g) :  No IPs in this symmetry

@ Symmetry 5 (B1u) :    12.153

@ Symmetry 6 (B2g) :  No IPs in this symmetry

@ Symmetry 7 (B3g) :  No IPs in this symmetry

@ Symmetry 8 (Au ) :  No IPs in this symmetry

  === End of HF-SCF KT output ===
--------------------------------------------------------------------------------


 CPU and wall time for SCF :       0.080       0.462


 ----- Output from SIRIUS CI module (CICTL) -----




 2-el. integral transformation level 0: Total CPU and WALL times (sec)       0.008       0.047

 (CIST1) 8 lowest diagonal elements:

 Element no. Config.no.    Active energy      Total energy

         1 :         11    -19.1492788455    -15.7673192276
         2 :         55    -18.7305203923    -15.3485607744
         3 :         36    -18.7099501111    -15.3279904932
         4 :          2    -18.4609837860    -15.0790241681
         5 :          5    -18.4609837860    -15.0790241681
         6 :         17    -18.3942443224    -15.0122847045
         7 :         14    -18.3942443224    -15.0122847045
         8 :          1    -18.2458357040    -14.8638760861

Lowest 1 elements are used as separate start CI vectors.


 Convergence threshold for CI optimization :     0.00001000


 CI root     eigenvalue        residual norm

    1      -15.7673192276        0.0618278419

 CI root     eigenvalue        residual norm

    1      -15.7710512998        0.0120387260

 CI root     eigenvalue        residual norm

    1      -15.7712971152        0.0024718337

 CI root     eigenvalue        residual norm

    1      -15.7713041896        0.0004915556

 CI root     eigenvalue        residual norm

    1      -15.7713044715        0.0000596462

 CI root     eigenvalue        residual norm

    1      -15.7713044744        0.0000105138

 CI root     eigenvalue        residual norm

    1      -15.7713044745        0.0000010280 converged

 The requested root number is now converged.


 *** CI converged in  7 iterations.



@ Final CI energies and residuals in symmetry 1 (irrep Ag )
@    1      -15.771304474513126       1.03D-06

 Writing SIRIFC interface file for CI root no. 1

 CPU and wall time for CI :       0.023       0.150


                       .-----------------------------------.
                       | --- Final results from SIRIUS --- |
                       `-----------------------------------'


@    Spin multiplicity:           1
@    Spatial symmetry:            1 ( irrep  Ag  in D2h )
@    Total charge of molecule:    0

@    This was a CI calculation.
@    State number:                1

@    Final CI energy:             -15.771304474513
@    Nuclear repulsion:             3.381959617895
@    Electronic energy:           -19.153264092408

@    Final gradient norm:           0.000001027970

 
     Date and time (Linux)  : Wed Jul  8 13:19:28 2026
     Host name              : n-62-31-23                              

 Occupancies of natural orbitals
 -------------------------------

 Symmetry 1  ( Ag ) -- Total occupation in this symmetry is   3.996641980

   1.999999454   1.993817115   0.002825411

  Effective numbers of unpaired electrons this symmetry Eqs. 1) and 2):  0.02  0.00

 Symmetry 2  ( B3u) -- Total occupation in this symmetry is   0.002530309

   0.002530309

  Effective numbers of unpaired electrons this symmetry Eqs. 1) and 2):  0.01  0.00

 Symmetry 3  ( B2u) -- Total occupation in this symmetry is   0.002530309

   0.002530309

  Effective numbers of unpaired electrons this symmetry Eqs. 1) and 2):  0.01  0.00

 Symmetry 4  ( B1g) -- No occupied orbitals

 Symmetry 5  ( B1u) -- Total occupation in this symmetry is   1.998297403

   1.997234550   0.001062853

  Effective numbers of unpaired electrons this symmetry Eqs. 1) and 2):  0.01  0.00

 Symmetry 6  ( B2g) -- No occupied orbitals

 Symmetry 7  ( B3g) -- No occupied orbitals

 Symmetry 8  ( Au ) -- No occupied orbitals

  Total effective number of unpaired electrons :
  Eq. 1) sum(i) [(2 - n_i) n_i]    =  0.0357
  Eq. 2) sum(i) [(2 - n_i) n_i]**2 =  0.0003
 (Reference: M. Head-Gordon, Chemical Physics Letters 372 (2003) 508-511)

  --- NOTE THAT THE OCCUPATION NUMBERS ARE FOR ANALYSIS PURPOSE ONLY
  --- The orbital coefficients have NOT been transformed
  --- to ordered natural orbitals.

File label for MO orbitals:   8Jul26    CIORB  

 (Only coefficients > 0.0100 are printed.)

 Molecular orbitals for symmetry species 1  (Ag )
 ------------------------------------------------

    Orbital         1        2        3        4        5        6        7
   1 Be  :1s     1.0010  -0.0416  -0.1054  -0.6189   0.2482   0.0000  -0.0504
   2 Be  :1s     0.0026   0.3322  -0.1746  -1.6988   0.3942   0.0000  -0.3423
   3 Be  :1s    -0.0034   0.1569   2.3602   0.6278   1.9713   0.0000  -0.1340
   4 Be  :3d0    0.0011   0.0350   0.0946   0.1012   1.0251   0.0000  -1.2869
   5 Be  :3d2+   0.0000   0.0000   0.0000   0.0000   0.0000   1.0000   0.0000
   6 H   :1s     0.0018   0.4686  -0.3032   0.0145   0.5894   0.0000   1.9085
   7 H   :1s    -0.0015  -0.0626  -0.9850   0.6033  -2.2145   0.0000  -1.1951
   8 H   :2pz   -0.0009  -0.0195   0.0301   0.0091   0.1113   0.0000   0.2918

    Orbital         8
   1 Be  :1s     0.8633
   2 Be  :1s     2.0870
   3 Be  :1s     0.8466
   4 Be  :3d0    1.9228
   6 H   :1s    -2.1456
   8 H   :2pz    1.0079

 Molecular orbitals for symmetry species 2  (B3u)
 ------------------------------------------------

    Orbital         1        2        3
   1 Be  :2px    0.2526   1.2025   0.3295
   2 Be  :2px    0.8257  -0.9253   0.0280
   3 H   :2px    0.0112   0.0242  -0.7409

 Molecular orbitals for symmetry species 3  (B2u)
 ------------------------------------------------

    Orbital         1        2        3
   1 Be  :2py    0.2526   1.2025   0.3295
   2 Be  :2py    0.8257  -0.9253   0.0280
   3 H   :2py    0.0112   0.0242  -0.7409

 Molecular orbitals for symmetry species 4  (B1g)
 ------------------------------------------------

    Orbital         1
   1 Be  :3d2-   1.0000

 Molecular orbitals for symmetry species 5  (B1u)
 ------------------------------------------------

    Orbital         1        2        3        4        5
   1 Be  :2pz    0.4033  -0.1981  -1.4128   0.4833   1.6927
   2 Be  :2pz    0.1288   2.3709  -1.8243  -1.5337   0.6842
   3 H   :1s     0.5263  -0.0815  -0.1290  -1.9654  -0.4896
   4 H   :1s    -0.1386  -1.3243   2.5464   2.9268  -1.0812
   5 H   :2pz   -0.0146   0.0196   0.0274  -0.0831   0.9811

 Molecular orbitals for symmetry species 6  (B2g)
 ------------------------------------------------

    Orbital         1        2
   1 Be  :3d1+   0.9769   0.7450
   2 H   :2px    0.0275  -0.8683

 Molecular orbitals for symmetry species 7  (B3g)
 ------------------------------------------------

    Orbital         1        2
   1 Be  :3d1-   0.9769   0.7450
   2 H   :2py    0.0275  -0.8683

 Printout of CI-coefficients abs greater than 0.05000 for root  1
 *** NOTE: this root is the CI reference state ***

 Printout of coefficients in interval  3.1623E-01 to  1.0000E+00
 ===============================================================

  Coefficient of CSF no.        11 is      0.99763648    9.97636485E-01
  Orbital          1   2   6
  Spin coupling    2   2   2

 Printout of coefficients in interval  1.0000E-01 to  3.1623E-01
 ===============================================================
   ( no coefficients )

 Printout of coefficients in interval  5.0000E-02 to  1.0000E-01
 ===============================================================
   ( no coefficients )

 Norm of printed CI vector ..      0.99527856

 Magnitude of CI coefficients
 ============================
 ( Ranges are relative to norm of vector :  1.00E+00 )

  10- 1 to 10- 0         1    0.99527856E+00      0.9952785558
  10- 2 to 10- 1         8    0.45853721E-02      0.9998639279
  10- 3 to 10- 2        10    0.13188576E-03      0.9999958136
  10- 4 to 10- 3        13    0.41528421E-05      0.9999999665
  10- 5 to 10- 4        23    0.33107890E-07      0.9999999996
  10- 6 to 10- 5        24    0.41830583E-09      1.0000000000
  10- 7 to 10- 6        14    0.23700414E-11      1.0000000000
  Number of coefficients less than 10^-11 times norm is            0

  Total CPU  time used in SIRIUS :   0.12 seconds
  Total wall time used in SIRIUS :   0.71 seconds

 
     Date and time (Linux)  : Wed Jul  8 13:19:28 2026
     Host name              : n-62-31-23                              


                     .---------------------------------------.
                     | End of Wave Function Section (SIRIUS) |
                     `---------------------------------------'



                 .------------------------------------------------.
                 | Starting in Dynamic Property Section (RESPONS) |
                 `------------------------------------------------'


 ----------------------------------------------------------------------------------------
  RESPONSE  -  an MCSCF, MC-srDFT, DFT, SOPPA and SOPPA-srDFT response property program
 ----------------------------------------------------------------------------------------

 This is a configuration interaction response calculation.
   Note: this is equivalent to a CI sum-over-states calculation of response properties.


 -------- OUTPUT FROM RESPONSE INPUT PROCESSING --------




  Linear Response single residue calculation
 -------------------------------------------


    5 input options by user.

 Print level                                    : IPRPP  =   2
 Maximum number of iterations for eigenval.eqs. : MAXITP =  60
 Threshold for convergence of eigenvalue eqs.   : THCPP  = 1.000D-09
 Maximum iterations in optimal orbital algorithm: MAXITO =   5

    300 Excitation energies are calculated for symmetry no.    1

    300 Excitation energies are calculated for symmetry no.    2

      1 property residues are calculated with labels:

               XDIPLEN 

    300 Excitation energies are calculated for symmetry no.    3

      1 property residues are calculated with labels:

               YDIPLEN 

    300 Excitation energies are calculated for symmetry no.    4

    300 Excitation energies are calculated for symmetry no.    5

      1 property residues are calculated with labels:

               ZDIPLEN 

    300 Excitation energies are calculated for symmetry no.    6

    300 Excitation energies are calculated for symmetry no.    7

    300 Excitation energies are calculated for symmetry no.    8

 Old direct access AO file found, SORTA skipped.

 2-el. integral transformation level 4: Total CPU and WALL times (sec)       0.009       0.050


 CI energy            :      -15.771304474513126
 -- inactive part     :        3.381959617894736
 --   active part     :      -19.153264092407863
 -- nuclear repulsion :        3.381959617894736


                         *******************************
                         *** CI response calculation ***
                         *******************************

 ----------------------------------------------------------------
 ----- Linear response calculation
 ----- Symmetry of excitation/property operator(s)    1  ( Ag )
 ----------------------------------------------------------------

 Number of excitations of this symmetry          300
 Number of response properties of this symmetry    0
 Number of C6/C8 properties of this symmetry       0


 Perturbation symmetry.     KSYMOP:           1
 Perturbation spin symmetry.TRPLET:           F
 Orbital variables.         KZWOPT:           0
 Configuration variables.   KZCONF:          93
 Total number of variables. KZVAR :          93

 ** RSPVAR ** Number of PP start vectors  300
   exceeds the maximum number of variables   92
   Number of start vectors reset to number of variables



 --- EXCITATION ENERGIES AND TRANSITION MOMENT CALCULATION (MCTDHF) ---

 Operator symmetry = 1  ( Ag ); triplet =   F

RSPORT:    1 out of   93 new trial vectors linear dependent

 ** RSPCTL MICROITERATION NUMBER    1

      Root  Residual tot.,    conf., and orb.    Bnorm      Eigenvalue
      ----------------------------------------------------------------
         1    9.32313D-15  9.32D-15  0.00D+00  1.00D+00    4.08924D-01
         2    1.32736D-14  1.33D-14  0.00D+00  1.00D+00    4.37657D-01
         3    1.27940D-14  1.28D-14  0.00D+00  1.00D+00    5.30984D-01
         4    1.86143D-14  1.86D-14  0.00D+00  1.00D+00    5.55922D-01
         5    1.58937D-14  1.59D-14  0.00D+00  1.00D+00    7.69749D-01
         6    1.81274D-14  1.81D-14  0.00D+00  1.00D+00    8.56829D-01
         7    1.34367D-14  1.34D-14  0.00D+00  1.00D+00    8.67010D-01
         8    1.63021D-14  1.63D-14  0.00D+00  1.00D+00    8.80379D-01
         9    1.53950D-14  1.54D-14  0.00D+00  1.00D+00    9.14963D-01
        10    1.62221D-14  1.62D-14  0.00D+00  1.00D+00    1.07219D+00
        11    1.99492D-14  1.99D-14  0.00D+00  1.00D+00    1.16041D+00
        12    1.92822D-14  1.93D-14  0.00D+00  1.00D+00    1.18395D+00
        13    1.29844D-14  1.30D-14  0.00D+00  1.00D+00    1.22485D+00
        14    1.59029D-14  1.59D-14  0.00D+00  1.00D+00    1.26431D+00
        15    1.76375D-14  1.76D-14  0.00D+00  1.00D+00    1.28131D+00
        16    1.62161D-14  1.62D-14  0.00D+00  1.00D+00    1.32207D+00
        17    1.99087D-14  1.99D-14  0.00D+00  1.00D+00    1.53674D+00
        18    1.35533D-14  1.36D-14  0.00D+00  1.00D+00    1.56330D+00
        19    1.75051D-14  1.75D-14  0.00D+00  1.00D+00    1.63421D+00
        20    1.84451D-14  1.84D-14  0.00D+00  1.00D+00    1.77202D+00
        21    2.24073D-14  2.24D-14  0.00D+00  1.00D+00    1.81883D+00
        22    1.87247D-14  1.87D-14  0.00D+00  1.00D+00    1.98973D+00
        23    1.88104D-14  1.88D-14  0.00D+00  1.00D+00    2.00863D+00
        24    2.12647D-14  2.13D-14  0.00D+00  1.00D+00    2.29393D+00
        25    1.56922D-14  1.57D-14  0.00D+00  1.00D+00    4.56388D+00
        26    1.99996D-14  2.00D-14  0.00D+00  1.00D+00    4.86559D+00
        27    1.88976D-14  1.89D-14  0.00D+00  1.00D+00    4.88506D+00
        28    2.54215D-14  2.54D-14  0.00D+00  1.00D+00    5.15472D+00
        29    1.46517D-14  1.47D-14  0.00D+00  1.00D+00    5.17385D+00
        30    2.31230D-14  2.31D-14  0.00D+00  1.00D+00    5.20986D+00
        31    1.69292D-14  1.69D-14  0.00D+00  1.00D+00    5.29102D+00
        32    1.73805D-14  1.74D-14  0.00D+00  1.00D+00    5.32306D+00
        33    1.85803D-14  1.86D-14  0.00D+00  1.00D+00    5.35562D+00
        34    2.40173D-14  2.40D-14  0.00D+00  1.00D+00    5.42263D+00
        35    2.10461D-14  2.10D-14  0.00D+00  1.00D+00    5.44724D+00
        36    1.49151D-14  1.49D-14  0.00D+00  1.00D+00    5.62617D+00
        37    1.44384D-14  1.44D-14  0.00D+00  1.00D+00    5.64970D+00
        38    1.47910D-14  1.48D-14  0.00D+00  1.00D+00    5.74313D+00
        39    2.21080D-14  2.21D-14  0.00D+00  1.00D+00    5.75866D+00
        40    2.00978D-14  2.01D-14  0.00D+00  1.00D+00    5.76929D+00
        41    2.90284D-14  2.90D-14  0.00D+00  1.00D+00    5.81976D+00
        42    2.42801D-14  2.43D-14  0.00D+00  1.00D+00    5.84508D+00
        43    1.59184D-14  1.59D-14  0.00D+00  1.00D+00    6.07284D+00
        44    2.01048D-14  2.01D-14  0.00D+00  1.00D+00    6.10877D+00
        45    2.40989D-14  2.41D-14  0.00D+00  1.00D+00    6.14555D+00
        46    2.74979D-14  2.75D-14  0.00D+00  1.00D+00    6.19434D+00
        47    2.36025D-14  2.36D-14  0.00D+00  1.00D+00    6.20945D+00
        48    2.86669D-14  2.87D-14  0.00D+00  1.00D+00    6.24376D+00
        49    3.02918D-14  3.03D-14  0.00D+00  1.00D+00    6.24592D+00
        50    2.15717D-14  2.16D-14  0.00D+00  1.00D+00    6.28550D+00
        51    1.78898D-14  1.79D-14  0.00D+00  1.00D+00    6.36352D+00
        52    2.54423D-14  2.54D-14  0.00D+00  1.00D+00    6.38732D+00
        53    2.46146D-14  2.46D-14  0.00D+00  1.00D+00    6.53428D+00
        54    1.78052D-14  1.78D-14  0.00D+00  1.00D+00    6.74808D+00
        55    1.82229D-14  1.82D-14  0.00D+00  1.00D+00    7.12796D+00
        56    3.39931D-14  3.40D-14  0.00D+00  1.00D+00    7.16001D+00
        57    3.76264D-14  3.76D-14  0.00D+00  1.00D+00    1.07198D+01
        58    5.20491D-14  5.20D-14  0.00D+00  1.00D+00    1.07369D+01
        59    5.58903D-14  5.59D-14  0.00D+00  1.00D+00    1.11046D+01
        60    7.53282D-14  7.53D-14  0.00D+00  1.00D+00    1.13261D+01
        61    3.94056D-14  3.94D-14  0.00D+00  1.00D+00    1.14253D+01
        62    4.10011D-14  4.10D-14  0.00D+00  1.00D+00    1.14525D+01
        63    4.14704D-14  4.15D-14  0.00D+00  1.00D+00    1.14754D+01
        64    6.27197D-14  6.27D-14  0.00D+00  1.00D+00    1.14934D+01
        65    6.06389D-14  6.06D-14  0.00D+00  1.00D+00    1.16573D+01
        66    8.33946D-14  8.34D-14  0.00D+00  1.00D+00    1.19023D+01
        67    8.83125D-14  8.83D-14  0.00D+00  1.00D+00    1.20012D+01
        68    4.19038D-14  4.19D-14  0.00D+00  1.00D+00    1.20305D+01
        69    5.90247D-14  5.90D-14  0.00D+00  1.00D+00    1.20648D+01
        70    6.64471D-14  6.64D-14  0.00D+00  1.00D+00    1.20873D+01
        71    3.71314D-14  3.71D-14  0.00D+00  1.00D+00    1.21903D+01
        72    4.44038D-14  4.44D-14  0.00D+00  1.00D+00    1.22242D+01
        73    5.56034D-14  5.56D-14  0.00D+00  1.00D+00    1.23092D+01
        74    5.96458D-14  5.96D-14  0.00D+00  1.00D+00    1.23347D+01
        75    3.11445D-14  3.11D-14  0.00D+00  1.00D+00    1.23655D+01
        76    7.32324D-14  7.32D-14  0.00D+00  1.00D+00    1.23940D+01
        77    4.11804D-14  4.12D-14  0.00D+00  1.00D+00    1.25064D+01
        78    7.29974D-14  7.30D-14  0.00D+00  1.00D+00    1.25290D+01
        79    5.84637D-14  5.85D-14  0.00D+00  1.00D+00    1.26114D+01
        80    5.32722D-14  5.33D-14  0.00D+00  1.00D+00    1.26706D+01
        81    5.55548D-14  5.56D-14  0.00D+00  1.00D+00    1.26877D+01
        82    5.60780D-14  5.61D-14  0.00D+00  1.00D+00    1.27477D+01
        83    6.98955D-14  6.99D-14  0.00D+00  1.00D+00    1.27759D+01
        84    6.63702D-14  6.64D-14  0.00D+00  1.00D+00    1.31192D+01
        85    6.11949D-14  6.12D-14  0.00D+00  1.00D+00    1.31379D+01
        86    6.96954D-14  6.97D-14  0.00D+00  1.00D+00    1.31767D+01
        87    7.32224D-14  7.32D-14  0.00D+00  1.00D+00    1.33229D+01
        88    3.52440D-14  3.52D-14  0.00D+00  1.00D+00    1.33559D+01
        89    5.34637D-14  5.35D-14  0.00D+00  1.00D+00    1.34733D+01
        90    6.30117D-14  6.30D-14  0.00D+00  1.00D+00    1.38191D+01
        91    5.38501D-14  5.39D-14  0.00D+00  1.00D+00    1.42571D+01
        92    4.56439D-14  4.56D-14  0.00D+00  1.00D+00    1.42951D+01
        93    1.08342D-14  1.08D-14  0.00D+00  1.00D+00   -4.08924D-01

 *** THE REQUESTED   92 SOLUTION VECTORS CONVERGED

 Convergence of RSP solution vectors, threshold = 1.00D-09
 ---------------------------------------------------------------
 (dimension of paired reduced space:  184)
 RSP solution vector no.    1; norm of residual   9.32D-15
 RSP solution vector no.    2; norm of residual   1.33D-14
 RSP solution vector no.    3; norm of residual   1.28D-14
 RSP solution vector no.    4; norm of residual   1.86D-14
 RSP solution vector no.    5; norm of residual   1.59D-14
 RSP solution vector no.    6; norm of residual   1.81D-14
 RSP solution vector no.    7; norm of residual   1.34D-14
 RSP solution vector no.    8; norm of residual   1.63D-14
 RSP solution vector no.    9; norm of residual   1.54D-14
 RSP solution vector no.   10; norm of residual   1.62D-14
 RSP solution vector no.   11; norm of residual   1.99D-14
 RSP solution vector no.   12; norm of residual   1.93D-14
 RSP solution vector no.   13; norm of residual   1.30D-14
 RSP solution vector no.   14; norm of residual   1.59D-14
 RSP solution vector no.   15; norm of residual   1.76D-14
 RSP solution vector no.   16; norm of residual   1.62D-14
 RSP solution vector no.   17; norm of residual   1.99D-14
 RSP solution vector no.   18; norm of residual   1.36D-14
 RSP solution vector no.   19; norm of residual   1.75D-14
 RSP solution vector no.   20; norm of residual   1.84D-14
 RSP solution vector no.   21; norm of residual   2.24D-14
 RSP solution vector no.   22; norm of residual   1.87D-14
 RSP solution vector no.   23; norm of residual   1.88D-14
 RSP solution vector no.   24; norm of residual   2.13D-14
 RSP solution vector no.   25; norm of residual   1.57D-14
 RSP solution vector no.   26; norm of residual   2.00D-14
 RSP solution vector no.   27; norm of residual   1.89D-14
 RSP solution vector no.   28; norm of residual   2.54D-14
 RSP solution vector no.   29; norm of residual   1.47D-14
 RSP solution vector no.   30; norm of residual   2.31D-14
 RSP solution vector no.   31; norm of residual   1.69D-14
 RSP solution vector no.   32; norm of residual   1.74D-14
 RSP solution vector no.   33; norm of residual   1.86D-14
 RSP solution vector no.   34; norm of residual   2.40D-14
 RSP solution vector no.   35; norm of residual   2.10D-14
 RSP solution vector no.   36; norm of residual   1.49D-14
 RSP solution vector no.   37; norm of residual   1.44D-14
 RSP solution vector no.   38; norm of residual   1.48D-14
 RSP solution vector no.   39; norm of residual   2.21D-14
 RSP solution vector no.   40; norm of residual   2.01D-14
 RSP solution vector no.   41; norm of residual   2.90D-14
 RSP solution vector no.   42; norm of residual   2.43D-14
 RSP solution vector no.   43; norm of residual   1.59D-14
 RSP solution vector no.   44; norm of residual   2.01D-14
 RSP solution vector no.   45; norm of residual   2.41D-14
 RSP solution vector no.   46; norm of residual   2.75D-14
 RSP solution vector no.   47; norm of residual   2.36D-14
 RSP solution vector no.   48; norm of residual   2.87D-14
 RSP solution vector no.   49; norm of residual   3.03D-14
 RSP solution vector no.   50; norm of residual   2.16D-14
 RSP solution vector no.   51; norm of residual   1.79D-14
 RSP solution vector no.   52; norm of residual   2.54D-14
 RSP solution vector no.   53; norm of residual   2.46D-14
 RSP solution vector no.   54; norm of residual   1.78D-14
 RSP solution vector no.   55; norm of residual   1.82D-14
 RSP solution vector no.   56; norm of residual   3.40D-14
 RSP solution vector no.   57; norm of residual   3.76D-14
 RSP solution vector no.   58; norm of residual   5.20D-14
 RSP solution vector no.   59; norm of residual   5.59D-14
 RSP solution vector no.   60; norm of residual   7.53D-14
 RSP solution vector no.   61; norm of residual   3.94D-14
 RSP solution vector no.   62; norm of residual   4.10D-14
 RSP solution vector no.   63; norm of residual   4.15D-14
 RSP solution vector no.   64; norm of residual   6.27D-14
 RSP solution vector no.   65; norm of residual   6.06D-14
 RSP solution vector no.   66; norm of residual   8.34D-14
 RSP solution vector no.   67; norm of residual   8.83D-14
 RSP solution vector no.   68; norm of residual   4.19D-14
 RSP solution vector no.   69; norm of residual   5.90D-14
 RSP solution vector no.   70; norm of residual   6.64D-14
 RSP solution vector no.   71; norm of residual   3.71D-14
 RSP solution vector no.   72; norm of residual   4.44D-14
 RSP solution vector no.   73; norm of residual   5.56D-14
 RSP solution vector no.   74; norm of residual   5.96D-14
 RSP solution vector no.   75; norm of residual   3.11D-14
 RSP solution vector no.   76; norm of residual   7.32D-14
 RSP solution vector no.   77; norm of residual   4.12D-14
 RSP solution vector no.   78; norm of residual   7.30D-14
 RSP solution vector no.   79; norm of residual   5.85D-14
 RSP solution vector no.   80; norm of residual   5.33D-14
 RSP solution vector no.   81; norm of residual   5.56D-14
 RSP solution vector no.   82; norm of residual   5.61D-14
 RSP solution vector no.   83; norm of residual   6.99D-14
 RSP solution vector no.   84; norm of residual   6.64D-14
 RSP solution vector no.   85; norm of residual   6.12D-14
 RSP solution vector no.   86; norm of residual   6.97D-14
 RSP solution vector no.   87; norm of residual   7.32D-14
 RSP solution vector no.   88; norm of residual   3.52D-14
 RSP solution vector no.   89; norm of residual   5.35D-14
 RSP solution vector no.   90; norm of residual   6.30D-14
 RSP solution vector no.   91; norm of residual   5.39D-14
 RSP solution vector no.   92; norm of residual   4.56D-14

 *** RSPCTL MICROITERATIONS CONVERGED


 **************************************************************************************
 *** @ Excit. operator sym 1 & ref. state sym 1 => excited state symmetry 1  ( Ag ) ***
 **************************************************************************************



 @ Excited state no:    1 in symmetry 1  ( Ag ) - singlet excitation
 -------------------------------------------------------------------

@ Excitation energy :  0.40892412     au
@                       11.127391     eV;   89748.470     cm-1;   1073.6301     kJ / mol

@ Total energy :       -15.362380     au

 Eigenvector for state no.  1

      Index(conf)                         Z operator          Y operator
      ----------                      --------------      --------------
           1                           -0.1866460736        0.0000000000
           2                            0.1128045549        0.0000000000
           5                            0.1128045549        0.0000000000
          14                           -0.1521785203        0.0000000000
          17                           -0.1521785203        0.0000000000
          36                            0.1597825156        0.0000000000
          55                            0.9247361573        0.0000000000

       86 elements with absolute value ≤ 1.00D-01 are not printed.

 Printout of coefficients in interval  3.1623E-01 to  1.0000E+00
 ===============================================================

  Coefficient of CSF no.        55 is      0.92473616    9.24736157E-01
  Orbital          1   6   2   3
  Spin coupling    2   2   1  -1

 Printout of coefficients in interval  1.0000E-01 to  3.1623E-01
 ===============================================================

  Coefficient of CSF no.         1 is     -0.18664607   -1.86646074E-01
  Orbital          1   2   3
  Spin coupling    2   2   2

  Coefficient of CSF no.         2 is      0.11280455    1.12804555E-01
  Orbital          1   2   4
  Spin coupling    2   2   2

  Coefficient of CSF no.         5 is      0.11280455    1.12804555E-01
  Orbital          1   2   5
  Spin coupling    2   2   2

  Coefficient of CSF no.        14 is     -0.15217852   -1.52178520E-01
  Orbital          1   4   6
  Spin coupling    2   2   2

  Coefficient of CSF no.        17 is     -0.15217852   -1.52178520E-01
  Orbital          1   5   6
  Spin coupling    2   2   2

  Coefficient of CSF no.        36 is      0.15978252    1.59782516E-01
  Orbital          1   2   6   7
  Spin coupling    2   2   1  -1

 Norm of printed CI vector ..      0.98727051

 Magnitude of CI coefficients
 ============================
 ( Ranges are relative to norm of vector :  1.00E+00 )

  10- 1 to 10- 0         7    0.98727051E+00      0.9872705091
  10- 2 to 10- 1         9    0.12510055E-01      0.9997805640
  10- 3 to 10- 2         8    0.21635870E-03      0.9999969227
  10- 4 to 10- 3        21    0.29952640E-05      0.9999999179
  10- 5 to 10- 4        28    0.81537328E-07      0.9999999995
  10- 6 to 10- 5        19    0.52109087E-09      1.0000000000
  10- 7 to 10- 6         1    0.14342251E-13      1.0000000000
  Number of coefficients less than 10^-11 times norm is            0


 @ Excited state no:    2 in symmetry 1  ( Ag ) - singlet excitation
 -------------------------------------------------------------------

@ Excitation energy :  0.43765712     au
@                       11.909256     eV;   96054.635     cm-1;   1149.0686     kJ / mol

@ Total energy :       -15.333647     au

 Eigenvector for state no.  2

      Index(conf)                         Z operator          Y operator
      ----------                      --------------      --------------
          21                            0.1055216233        0.0000000000
          36                           -0.9655893739        0.0000000000
          55                            0.1218709859        0.0000000000
          76                            0.1153731131        0.0000000000

       89 elements with absolute value ≤ 1.00D-01 are not printed.

 Printout of coefficients in interval  3.1623E-01 to  1.0000E+00
 ===============================================================

  Coefficient of CSF no.        36 is     -0.96558937   -9.65589374E-01
  Orbital          1   2   6   7
  Spin coupling    2   2   1  -1

 Printout of coefficients in interval  1.0000E-01 to  3.1623E-01
 ===============================================================

  Coefficient of CSF no.        21 is      0.10552162    1.05521623E-01
  Orbital          1   2   7
  Spin coupling    2   2   2

  Coefficient of CSF no.        55 is      0.12187099    1.21870986E-01
  Orbital          1   6   2   3
  Spin coupling    2   2   1  -1

  Coefficient of CSF no.        76 is      0.11537311    1.15373113E-01
  Orbital          1   2   3   6   7
  Spin coupling    2   1   1  -1  -1

 Norm of printed CI vector ..      0.97166114

 Magnitude of CI coefficients
 ============================
 ( Ranges are relative to norm of vector :  1.00E+00 )

  10- 1 to 10- 0         4    0.97166114E+00      0.9716611444
  10- 2 to 10- 1        14    0.28239573E-01      0.9999007174
  10- 3 to 10- 2        10    0.98394775E-04      0.9999991122
  10- 4 to 10- 3        13    0.82981694E-06      0.9999999420
  10- 5 to 10- 4        28    0.57265343E-07      0.9999999992
  10- 6 to 10- 5        19    0.75361559E-09      1.0000000000
  10- 7 to 10- 6         5    0.19976476E-11      1.0000000000
  Number of coefficients less than 10^-11 times norm is            0


 @ Excited state no:    3 in symmetry 1  ( Ag ) - singlet excitation
 -------------------------------------------------------------------

@ Excitation energy :  0.53098413     au
@                       14.448813     eV;   116537.55     cm-1;   1394.0986     kJ / mol

@ Total energy :       -15.240320     au

 Eigenvector for state no.  3

      Index(conf)                         Z operator          Y operator
      ----------                      --------------      --------------
           2                           -0.5321368714        0.0000000000
           5                            0.5321368714        0.0000000000
          14                            0.4535471162        0.0000000000
          17                           -0.4535471162        0.0000000000

       89 elements with absolute value ≤ 1.00D-01 are not printed.

 Printout of coefficients in interval  3.1623E-01 to  1.0000E+00
 ===============================================================

  Coefficient of CSF no.         2 is     -0.53213687   -5.32136871E-01
  Orbital          1   2   4
  Spin coupling    2   2   2

  Coefficient of CSF no.         5 is      0.53213687    5.32136871E-01
  Orbital          1   2   5
  Spin coupling    2   2   2

  Coefficient of CSF no.        14 is      0.45354712    4.53547116E-01
  Orbital          1   4   6
  Spin coupling    2   2   2

  Coefficient of CSF no.        17 is     -0.45354712   -4.53547116E-01
  Orbital          1   5   6
  Spin coupling    2   2   2

 Printout of coefficients in interval  1.0000E-01 to  3.1623E-01
 ===============================================================
   ( no coefficients )

 Norm of printed CI vector ..      0.97774927

 Magnitude of CI coefficients
 ============================
 ( Ranges are relative to norm of vector :  1.00E+00 )

  10- 1 to 10- 0         4    0.97774927E+00      0.9777492729
  10- 2 to 10- 1         4    0.22135121E-01      0.9998843942
  10- 3 to 10- 2         6    0.11359686E-03      0.9999979911
  10- 4 to 10- 3        16    0.19748097E-05      0.9999999659
  10- 5 to 10- 4        16    0.33914992E-07      0.9999999998
  10- 6 to 10- 5         6    0.21614208E-09      1.0000000000
  10- 7 to 10- 6         4    0.11904095E-11      1.0000000000
  Number of coefficients less than 10^-11 times norm is           37


 @ Excited state no:    4 in symmetry 1  ( Ag ) - singlet excitation
 -------------------------------------------------------------------

@ Excitation energy :  0.55592238     au
@                       15.127417     eV;   122010.86     cm-1;   1459.5740     kJ / mol

@ Total energy :       -15.215382     au

 Eigenvector for state no.  4

      Index(conf)                         Z operator          Y operator
      ----------                      --------------      --------------
           1                           -0.1406414383        0.0000000000
           2                            0.5003345585        0.0000000000
           5                            0.5003345585        0.0000000000
          12                            0.1839010122        0.0000000000
          14                           -0.3992390547        0.0000000000
          17                           -0.3992390547        0.0000000000
          36                            0.1040829949        0.0000000000
          55                           -0.3087262396        0.0000000000

       85 elements with absolute value ≤ 1.00D-01 are not printed.

 Printout of coefficients in interval  3.1623E-01 to  1.0000E+00
 ===============================================================

  Coefficient of CSF no.         2 is      0.50033456    5.00334559E-01
  Orbital          1   2   4
  Spin coupling    2   2   2

  Coefficient of CSF no.         5 is      0.50033456    5.00334559E-01
  Orbital          1   2   5
  Spin coupling    2   2   2

  Coefficient of CSF no.        14 is     -0.39923905   -3.99239055E-01
  Orbital          1   4   6
  Spin coupling    2   2   2

  Coefficient of CSF no.        17 is     -0.39923905   -3.99239055E-01
  Orbital          1   5   6
  Spin coupling    2   2   2

 Printout of coefficients in interval  1.0000E-01 to  3.1623E-01
 ===============================================================

  Coefficient of CSF no.         1 is     -0.14064144   -1.40641438E-01
  Orbital          1   2   3
  Spin coupling    2   2   2

  Coefficient of CSF no.        12 is      0.18390101    1.83901012E-01
  Orbital          1   3   6
  Spin coupling    2   2   2

  Coefficient of CSF no.        36 is      0.10408299    1.04082995E-01
  Orbital          1   2   6   7
  Spin coupling    2   2   1  -1

  Coefficient of CSF no.        55 is     -0.30872624   -3.08726240E-01
  Orbital          1   6   2   3
  Spin coupling    2   2   1  -1

 Printout of coefficients in interval  1.0000E-01 to  1.0000E-01
 ===============================================================
   ( no coefficients )

 Norm of printed CI vector ..      0.97919774

 Magnitude of CI coefficients
 ============================
 ( Ranges are relative to norm of vector :  1.00E+00 )

  10- 1 to 10- 0         8    0.97919774E+00      0.9791977437
  10- 2 to 10- 1         9    0.20555580E-01      0.9997533233
  10- 3 to 10- 2        10    0.24297544E-03      0.9999962987
  10- 4 to 10- 3        26    0.36369002E-05      0.9999999356
  10- 5 to 10- 4        27    0.64090721E-07      0.9999999997
  10- 6 to 10- 5        11    0.31225902E-09      1.0000000000
  10- 7 to 10- 6         2    0.13692277E-11      1.0000000000
  Number of coefficients less than 10^-11 times norm is            0


 @ Excited state no:    5 in symmetry 1  ( Ag ) - singlet excitation
 -------------------------------------------------------------------

@ Excitation energy :  0.76974860     au
@                       20.945925     eV;   168940.29     cm-1;   2020.9746     kJ / mol

@ Total energy :       -15.001556     au

 Eigenvector for state no.  5

      Index(conf)                         Z operator          Y operator
      ----------                      --------------      --------------
           1                            0.6835559832        0.0000000000
           2                            0.1564258766        0.0000000000
           5                            0.1564258766        0.0000000000
          12                           -0.6348149860        0.0000000000
          14                           -0.1063654585        0.0000000000
          17                           -0.1063654585        0.0000000000
          77                            0.1536222479        0.0000000000

       86 elements with absolute value ≤ 1.00D-01 are not printed.

 Printout of coefficients in interval  3.1623E-01 to  1.0000E+00
 ===============================================================

  Coefficient of CSF no.         1 is      0.68355598    6.83555983E-01
  Orbital          1   2   3
  Spin coupling    2   2   2

  Coefficient of CSF no.        12 is     -0.63481499   -6.34814986E-01
  Orbital          1   3   6
  Spin coupling    2   2   2

 Printout of coefficients in interval  1.0000E-01 to  3.1623E-01
 ===============================================================

  Coefficient of CSF no.         2 is      0.15642588    1.56425877E-01
  Orbital          1   2   4
  Spin coupling    2   2   2

  Coefficient of CSF no.         5 is      0.15642588    1.56425877E-01
  Orbital          1   2   5
  Spin coupling    2   2   2

  Coefficient of CSF no.        14 is     -0.10636546   -1.06365459E-01
  Orbital          1   4   6
  Spin coupling    2   2   2

  Coefficient of CSF no.        17 is     -0.10636546   -1.06365459E-01
  Orbital          1   5   6
  Spin coupling    2   2   2

  Coefficient of CSF no.        77 is      0.15362225    1.53622248E-01
  Orbital          1   2   3   6   7
  Spin coupling    2   1  -1   1  -1

 Printout of coefficients in interval  1.0000E-01 to  1.0000E-01
 ===============================================================
   ( no coefficients )

 Norm of printed CI vector ..      0.96540397

 Magnitude of CI coefficients
 ============================
 ( Ranges are relative to norm of vector :  1.00E+00 )

  10- 1 to 10- 0         7    0.96540397E+00      0.9654039749
  10- 2 to 10- 1        11    0.34414234E-01      0.9998182089
  10- 3 to 10- 2         8    0.17607202E-03      0.9999942809
  10- 4 to 10- 3        28    0.56651536E-05      0.9999999461
  10- 5 to 10- 4        22    0.53669797E-07      0.9999999997
  10- 6 to 10- 5        12    0.25159020E-09      1.0000000000
  10- 7 to 10- 6         5    0.21186819E-11      1.0000000000
  Number of coefficients less than 10^-11 times norm is            0


 @ Excited state no:    6 in symmetry 1  ( Ag ) - singlet excitation
 -------------------------------------------------------------------

@ Excitation energy :  0.85682905     au
@                       23.315504     eV;   188052.24     cm-1;   2249.6043     kJ / mol

@ Total energy :       -14.914475     au

 Eigenvector for state no.  6

      Index(conf)                         Z operator          Y operator
      ----------                      --------------      --------------
           1                           -0.1245320537        0.0000000000
          12                            0.1248914915        0.0000000000
          21                           -0.1492861454        0.0000000000
          31                            0.1412810154        0.0000000000
          37                           -0.1535662466        0.0000000000
          64                           -0.1093165471        0.0000000000
          76                           -0.4569784353        0.0000000000
          77                            0.8154464392        0.0000000000

       85 elements with absolute value ≤ 1.00D-01 are not printed.

 Printout of coefficients in interval  3.1623E-01 to  1.0000E+00
 ===============================================================

  Coefficient of CSF no.        76 is     -0.45697844   -4.56978435E-01
  Orbital          1   2   3   6   7
  Spin coupling    2   1   1  -1  -1

  Coefficient of CSF no.        77 is      0.81544644    8.15446439E-01
  Orbital          1   2   3   6   7
  Spin coupling    2   1  -1   1  -1

 Printout of coefficients in interval  1.0000E-01 to  3.1623E-01
 ===============================================================

  Coefficient of CSF no.         1 is     -0.12453205   -1.24532054E-01
  Orbital          1   2   3
  Spin coupling    2   2   2

  Coefficient of CSF no.        12 is      0.12489149    1.24891491E-01
  Orbital          1   3   6
  Spin coupling    2   2   2

  Coefficient of CSF no.        21 is     -0.14928615   -1.49286145E-01
  Orbital          1   2   7
  Spin coupling    2   2   2

  Coefficient of CSF no.        31 is      0.14128102    1.41281015E-01
  Orbital          1   6   7
  Spin coupling    2   2   2

  Coefficient of CSF no.        37 is     -0.15356625   -1.53566247E-01
  Orbital          1   3   6   7
  Spin coupling    2   2   1  -1

  Coefficient of CSF no.        64 is     -0.10931655   -1.09316547E-01
  Orbital          1   7   2   3
  Spin coupling    2   2   1  -1

 Printout of coefficients in interval  1.0000E-01 to  1.0000E-01
 ===============================================================
   ( no coefficients )

 Norm of printed CI vector ..      0.98266768

 Magnitude of CI coefficients
 ============================
 ( Ranges are relative to norm of vector :  1.00E+00 )

  10- 1 to 10- 0         8    0.98266768E+00      0.9826676807
  10- 2 to 10- 1        13    0.17220985E-01      0.9998886660
  10- 3 to 10- 2         8    0.10841408E-03      0.9999970801
  10- 4 to 10- 3        27    0.28627470E-05      0.9999999429
  10- 5 to 10- 4        29    0.56827023E-07      0.9999999997
  10- 6 to 10- 5         8    0.29832091E-09      1.0000000000
  Number of coefficients less than 10^-11 times norm is            0


 @ Excited state no:    7 in symmetry 1  ( Ag ) - singlet excitation
 -------------------------------------------------------------------

@ Excitation energy :  0.86700996     au
@                       23.592541     eV;   190286.69     cm-1;   2276.3343     kJ / mol

@ Total energy :       -14.904295     au

 Eigenvector for state no.  7

      Index(conf)                         Z operator          Y operator
      ----------                      --------------      --------------
           2                            0.4640980478        0.0000000000
           5                           -0.4640980478        0.0000000000
          14                            0.5191401633        0.0000000000
          17                           -0.5191401633        0.0000000000
          39                            0.1136452939        0.0000000000
          45                           -0.1136452939        0.0000000000

       87 elements with absolute value ≤ 1.00D-01 are not printed.

 Printout of coefficients in interval  3.1623E-01 to  1.0000E+00
 ===============================================================

  Coefficient of CSF no.         2 is      0.46409805    4.64098048E-01
  Orbital          1   2   4
  Spin coupling    2   2   2

  Coefficient of CSF no.         5 is     -0.46409805   -4.64098048E-01
  Orbital          1   2   5
  Spin coupling    2   2   2

  Coefficient of CSF no.        14 is      0.51914016    5.19140163E-01
  Orbital          1   4   6
  Spin coupling    2   2   2

  Coefficient of CSF no.        17 is     -0.51914016   -5.19140163E-01
  Orbital          1   5   6
  Spin coupling    2   2   2

 Printout of coefficients in interval  1.0000E-01 to  3.1623E-01
 ===============================================================

  Coefficient of CSF no.        39 is      0.11364529    1.13645294E-01
  Orbital          1   4   2   3
  Spin coupling    2   2   1  -1

  Coefficient of CSF no.        45 is     -0.11364529   -1.13645294E-01
  Orbital          1   5   2   3
  Spin coupling    2   2   1  -1

 Norm of printed CI vector ..      0.99561752

 Magnitude of CI coefficients
 ============================
 ( Ranges are relative to norm of vector :  1.00E+00 )

  10- 1 to 10- 0         6    0.99561752E+00      0.9956175199
  10- 2 to 10- 1         4    0.42354051E-02      0.9998529250
  10- 3 to 10- 2        10    0.14535299E-03      0.9999982780
  10- 4 to 10- 3        12    0.16620208E-05      0.9999999400
  10- 5 to 10- 4        20    0.59973974E-07      1.0000000000
  10- 6 to 10- 5         4    0.49580546E-10      1.0000000000
  Number of coefficients less than 10^-11 times norm is           37


 @ Excited state no:    8 in symmetry 1  ( Ag ) - singlet excitation
 -------------------------------------------------------------------

@ Excitation energy :  0.88037861     au
@                       23.956321     eV;   193220.77     cm-1;   2311.4337     kJ / mol

@ Total energy :       -14.890926     au

 Eigenvector for state no.  8

      Index(conf)                         Z operator          Y operator
      ----------                      --------------      --------------
           1                           -0.2176669286        0.0000000000
[...]

  10- 1 to 10- 0         8    0.91233584E+00    0.91233584E+00
  10- 2 to 10- 1        42    0.86651211E-01    0.99898706E+00
  10- 3 to 10- 2        32    0.10051443E-02    0.99999220E+00
  10- 4 to 10- 3        42    0.77384968E-05    0.99999994E+00
  10- 5 to 10- 4        20    0.61348995E-07    0.10000000E+01
  10- 6 to 10- 5         4    0.19435548E-09    0.10000000E+01
  Number of coefficients less than 10^-11 times norm is             0


 **************************************************************************************
 *** @ Excit. operator sym 8 & ref. state sym 1 => excited state symmetry 8  ( Au ) ***
 **************************************************************************************



 @ Excited state no:   46 in symmetry 8  ( Au ) - singlet excitation
 -------------------------------------------------------------------

@ Excitation energy :   5.3820298     au
@                       146.45248     eV;   1181219.0     cm-1;   14130.517     kJ / mol

@ Total energy :       -10.389275     au

 Eigenvector for state no. 46

      Index(conf)                         Z operator          Y operator
      ----------                      --------------      --------------
           2                           -0.3760696747        0.0000000000
          12                            0.1647774146        0.0000000000
          25                           -0.1982882502        0.0000000000
          36                           -0.1647774146        0.0000000000
          49                            0.1982882502        0.0000000000
          67                           -0.4508732675        0.0000000000
          84                            0.4508732675        0.0000000000
          97                           -0.1982882502        0.0000000000
         111                            0.1647774146        0.0000000000
         121                            0.1982882502        0.0000000000
         135                           -0.1647774146        0.0000000000
         143                            0.3760696747        0.0000000000

      136 elements with absolute value ≤ 1.00D-01 are not printed.


  Printout of coefficients in interval   0.3162E+00 to  0.1000E+01
  ==============================================================

 Coefficient of determinant         2 is     -0.37606967 -3.76069675E-01
 alpha-string:  1              6  7
  beta-string:           4  5  6

 Coefficient of determinant        67 is     -0.45087327 -4.50873268E-01
 alpha-string:     2     4  5
  beta-string:  1  2              7

 Coefficient of determinant        84 is      0.45087327  4.50873268E-01
 alpha-string:  1  2              7
  beta-string:     2     4  5

 Coefficient of determinant       143 is      0.37606967  3.76069675E-01
 alpha-string:           4  5  6
  beta-string:  1              6  7


  Printout of coefficients in interval   0.1000E+00 to  0.3162E+00
  ==============================================================

 Coefficient of determinant        12 is      0.16477741  1.64777415E-01
 alpha-string:           4     6  7
  beta-string:  1           5  6

 Coefficient of determinant        25 is     -0.19828825 -1.98288250E-01
 alpha-string:  1  2     4
  beta-string:     2        5     7

 Coefficient of determinant        36 is     -0.16477741 -1.64777415E-01
 alpha-string:              5  6  7
  beta-string:  1        4     6

 Coefficient of determinant        49 is      0.19828825  1.98288250E-01
 alpha-string:  1  2        5
  beta-string:     2     4        7

 Coefficient of determinant        97 is     -0.19828825 -1.98288250E-01
 alpha-string:     2     4        7
  beta-string:  1  2        5

 Coefficient of determinant       111 is      0.16477741  1.64777415E-01
 alpha-string:  1        4     6
  beta-string:              5  6  7

 Coefficient of determinant       121 is      0.19828825  1.98288250E-01
 alpha-string:     2        5     7
  beta-string:  1  2     4

 Coefficient of determinant       135 is     -0.16477741 -1.64777415E-01
 alpha-string:  1           5  6
  beta-string:           4     6  7

 Norm of printed part of CI vector ..      0.95530951

  Magnitude of CI coefficients
  ============================

  ( Ranges are relative to norm of vector :  1.00E+00 )

  10- 1 to 10- 0        12    0.95530951E+00    0.95530951E+00
  10- 2 to 10- 1        48    0.44323901E-01    0.99963341E+00
  10- 3 to 10- 2        30    0.36200795E-03    0.99999542E+00
  10- 4 to 10- 3        40    0.45049283E-05    0.99999993E+00
  10- 5 to 10- 4        14    0.72827713E-07    0.10000000E+01
  10- 6 to 10- 5         4    0.10078443E-09    0.10000000E+01
  Number of coefficients less than 10^-11 times norm is             0


 @ Excited state no:   47 in symmetry 8  ( Au ) - singlet excitation
 -------------------------------------------------------------------

@ Excitation energy :   5.3871435     au
@                       146.59163     eV;   1182341.3     cm-1;   14143.943     kJ / mol

@ Total energy :       -10.384161     au

 Eigenvector for state no. 47

      Index(conf)                         Z operator          Y operator
      ----------                      --------------      --------------
           2                            0.3603312670        0.0000000000
          12                            0.1801656335        0.0000000000
          25                            0.2153618247        0.0000000000
          36                           -0.1801656335        0.0000000000
          49                           -0.2153618247        0.0000000000
          67                           -0.4307236493        0.0000000000
          84                           -0.4307236493        0.0000000000
          97                           -0.2153618247        0.0000000000
         111                           -0.1801656335        0.0000000000
         121                            0.2153618247        0.0000000000
         135                            0.1801656335        0.0000000000
         143                            0.3603312670        0.0000000000

      136 elements with absolute value ≤ 1.00D-01 are not printed.


  Printout of coefficients in interval   0.3162E+00 to  0.1000E+01
  ==============================================================

 Coefficient of determinant         2 is      0.36033127  3.60331267E-01
 alpha-string:  1              6  7
  beta-string:           4  5  6

 Coefficient of determinant        67 is     -0.43072365 -4.30723649E-01
 alpha-string:     2     4  5
  beta-string:  1  2              7

 Coefficient of determinant        84 is     -0.43072365 -4.30723649E-01
 alpha-string:  1  2              7
  beta-string:     2     4  5

 Coefficient of determinant       143 is      0.36033127  3.60331267E-01
 alpha-string:           4  5  6
  beta-string:  1              6  7


  Printout of coefficients in interval   0.1000E+00 to  0.3162E+00
  ==============================================================

 Coefficient of determinant        12 is      0.18016563  1.80165634E-01
 alpha-string:           4     6  7
  beta-string:  1           5  6

 Coefficient of determinant        25 is      0.21536182  2.15361825E-01
 alpha-string:  1  2     4
  beta-string:     2        5     7

 Coefficient of determinant        36 is     -0.18016563 -1.80165634E-01
 alpha-string:              5  6  7
  beta-string:  1        4     6

 Coefficient of determinant        49 is     -0.21536182 -2.15361825E-01
 alpha-string:  1  2        5
  beta-string:     2     4        7

 Coefficient of determinant        97 is     -0.21536182 -2.15361825E-01
 alpha-string:     2     4        7
  beta-string:  1  2        5

 Coefficient of determinant       111 is     -0.18016563 -1.80165634E-01
 alpha-string:  1        4     6
  beta-string:              5  6  7

 Coefficient of determinant       121 is      0.21536182  2.15361825E-01
 alpha-string:     2        5     7
  beta-string:  1  2     4

 Coefficient of determinant       135 is      0.18016563  1.80165634E-01
 alpha-string:  1           5  6
  beta-string:           4     6  7

 Norm of printed part of CI vector ..      0.94608445

  Magnitude of CI coefficients
  ============================

  ( Ranges are relative to norm of vector :  1.00E+00 )

  10- 1 to 10- 0        12    0.94608445E+00    0.94608445E+00
  10- 2 to 10- 1        48    0.53526979E-01    0.99961143E+00
  10- 3 to 10- 2        30    0.38138221E-03    0.99999281E+00
  10- 4 to 10- 3        30    0.70617036E-05    0.99999988E+00
  10- 5 to 10- 4        28    0.12456321E-06    0.10000000E+01
  Number of coefficients less than 10^-11 times norm is             0


 @ Excited state no:   48 in symmetry 8  ( Au ) - singlet excitation
 -------------------------------------------------------------------

@ Excitation energy :   5.3930795     au
@                       146.75316     eV;   1183644.1     cm-1;   14159.528     kJ / mol

@ Total energy :       -10.378225     au

 Eigenvector for state no. 48

      Index(conf)                         Z operator          Y operator
      ----------                      --------------      --------------
          12                            0.3154772271        0.0000000000
          25                            0.3756445522        0.0000000000
          36                            0.3154772271        0.0000000000
          49                            0.3756445522        0.0000000000
          97                           -0.3756445523        0.0000000000
         111                           -0.3154772271        0.0000000000
         121                           -0.3756445522        0.0000000000
         135                           -0.3154772271        0.0000000000

      140 elements with absolute value ≤ 1.00D-01 are not printed.


  Printout of coefficients in interval   0.3162E+00 to  0.1000E+01
  ==============================================================

 Coefficient of determinant        25 is      0.37564455  3.75644552E-01
 alpha-string:  1  2     4
  beta-string:     2        5     7

 Coefficient of determinant        49 is      0.37564455  3.75644552E-01
 alpha-string:  1  2        5
  beta-string:     2     4        7

 Coefficient of determinant        97 is     -0.37564455 -3.75644552E-01
 alpha-string:     2     4        7
  beta-string:  1  2        5

 Coefficient of determinant       121 is     -0.37564455 -3.75644552E-01
 alpha-string:     2        5     7
  beta-string:  1  2     4


  Printout of coefficients in interval   0.1000E+00 to  0.3162E+00
  ==============================================================

 Coefficient of determinant        12 is      0.31547723  3.15477227E-01
 alpha-string:           4     6  7
  beta-string:  1           5  6

 Coefficient of determinant        36 is      0.31547723  3.15477227E-01
 alpha-string:              5  6  7
  beta-string:  1        4     6

 Coefficient of determinant       111 is     -0.31547723 -3.15477227E-01
 alpha-string:  1        4     6
  beta-string:              5  6  7

 Coefficient of determinant       135 is     -0.31547723 -3.15477227E-01
 alpha-string:  1           5  6
  beta-string:           4     6  7

 Norm of printed part of CI vector ..      0.96253884

  Magnitude of CI coefficients
  ============================

  ( Ranges are relative to norm of vector :  1.00E+00 )

  10- 1 to 10- 0         8    0.96253884E+00    0.96253884E+00
  10- 2 to 10- 1        28    0.36908175E-01    0.99944702E+00
  10- 3 to 10- 2        24    0.54902077E-03    0.99999604E+00
  10- 4 to 10- 3        32    0.39464227E-05    0.99999998E+00
  10- 5 to 10- 4         4    0.16201172E-07    0.10000000E+01
  Number of coefficients less than 10^-11 times norm is            52


 @ Excited state no:   49 in symmetry 8  ( Au ) - singlet excitation
 -------------------------------------------------------------------

@ Excitation energy :   5.3947436     au
@                       146.79844     eV;   1184009.4     cm-1;   14163.897     kJ / mol

@ Total energy :       -10.376561     au

 Eigenvector for state no. 49

      Index(conf)                         Z operator          Y operator
      ----------                      --------------      --------------
          12                            0.3124891424        0.0000000000
          25                           -0.3730019405        0.0000000000
          36                            0.3124891424        0.0000000000
          49                           -0.3730019405        0.0000000000
          97                           -0.3730019405        0.0000000000
         111                            0.3124891424        0.0000000000
         121                           -0.3730019405        0.0000000000
         135                            0.3124891424        0.0000000000

      140 elements with absolute value ≤ 1.00D-01 are not printed.


  Printout of coefficients in interval   0.3162E+00 to  0.1000E+01
  ==============================================================

 Coefficient of determinant        25 is     -0.37300194 -3.73001941E-01
 alpha-string:  1  2     4
  beta-string:     2        5     7

 Coefficient of determinant        49 is     -0.37300194 -3.73001941E-01
 alpha-string:  1  2        5
  beta-string:     2     4        7

 Coefficient of determinant        97 is     -0.37300194 -3.73001941E-01
 alpha-string:     2     4        7
  beta-string:  1  2        5

 Coefficient of determinant       121 is     -0.37300194 -3.73001941E-01
 alpha-string:     2        5     7
  beta-string:  1  2     4


  Printout of coefficients in interval   0.1000E+00 to  0.3162E+00
  ==============================================================

 Coefficient of determinant        12 is      0.31248914  3.12489142E-01
 alpha-string:           4     6  7
  beta-string:  1           5  6

 Coefficient of determinant        36 is      0.31248914  3.12489142E-01
 alpha-string:              5  6  7
  beta-string:  1        4     6

 Coefficient of determinant       111 is      0.31248914  3.12489142E-01
 alpha-string:  1        4     6
  beta-string:              5  6  7

 Coefficient of determinant       135 is      0.31248914  3.12489142E-01
 alpha-string:  1           5  6
  beta-string:           4     6  7

 Norm of printed part of CI vector ..      0.94711965

  Magnitude of CI coefficients
  ============================

  ( Ranges are relative to norm of vector :  1.00E+00 )

  10- 1 to 10- 0         8    0.94711965E+00    0.94711965E+00
  10- 2 to 10- 1        28    0.52160661E-01    0.99928031E+00
  10- 3 to 10- 2        28    0.71730453E-03    0.99999761E+00
  10- 4 to 10- 3        32    0.23874404E-05    0.10000000E+01
  Number of coefficients less than 10^-11 times norm is            52


 @ Excited state no:   50 in symmetry 8  ( Au ) - singlet excitation
 -------------------------------------------------------------------

@ Excitation energy :   5.3960111     au
@                       146.83293     eV;   1184287.5     cm-1;   14167.225     kJ / mol

@ Total energy :       -10.375293     au

 Eigenvector for state no. 50

      Index(conf)                         Z operator          Y operator
      ----------                      --------------      --------------
           1                            0.2211657205        0.0000000000
          11                           -0.1134577970        0.0000000000
          14                           -0.2393294672        0.0000000000
          35                            0.1134577970        0.0000000000
          38                            0.2393294672        0.0000000000
          61                            0.2574932140        0.0000000000
          63                            0.4480813145        0.0000000000
          77                            0.4480813145        0.0000000000
          82                            0.2574932140        0.0000000000
         100                            0.2393294672        0.0000000000
         105                            0.1134577970        0.0000000000
         124                           -0.2393294672        0.0000000000
         129                           -0.1134577970        0.0000000000
         141                            0.2211657205        0.0000000000

      134 elements with absolute value ≤ 1.00D-01 are not printed.


  Printout of coefficients in interval   0.3162E+00 to  0.1000E+01
  ==============================================================

 Coefficient of determinant        63 is      0.44808131  4.48081315E-01
 alpha-string:  1        4  5
  beta-string:     2  3        6

 Coefficient of determinant        77 is      0.44808131  4.48081315E-01
 alpha-string:     2  3        6
  beta-string:  1        4  5


  Printout of coefficients in interval   0.1000E+00 to  0.3162E+00
  ==============================================================

 Coefficient of determinant         1 is      0.22116572  2.21165720E-01
 alpha-string:  1  2  3
  beta-string:           4  5  6

 Coefficient of determinant        11 is     -0.11345780 -1.13457797E-01
 alpha-string:     2  3  4
  beta-string:  1           5  6

 Coefficient of determinant        14 is     -0.23932947 -2.39329467E-01
 alpha-string:  1     3  4
  beta-string:     2        5  6

 Coefficient of determinant        35 is      0.11345780  1.13457797E-01
 alpha-string:     2  3     5
  beta-string:  1        4     6

 Coefficient of determinant        38 is      0.23932947  2.39329467E-01
 alpha-string:  1     3     5
  beta-string:     2     4     6

 Coefficient of determinant        61 is      0.25749321  2.57493214E-01
 alpha-string:     2     4  5
  beta-string:  1     3        6

 Coefficient of determinant        82 is      0.25749321  2.57493214E-01
 alpha-string:  1     3        6
  beta-string:     2     4  5

 Coefficient of determinant       100 is      0.23932947  2.39329467E-01
 alpha-string:     2     4     6
  beta-string:  1     3     5

 Coefficient of determinant       105 is      0.11345780  1.13457797E-01
 alpha-string:  1        4     6
  beta-string:     2  3     5

 Coefficient of determinant       124 is     -0.23932947 -2.39329467E-01
 alpha-string:     2        5  6
  beta-string:  1     3  4

 Coefficient of determinant       129 is     -0.11345780 -1.13457797E-01
 alpha-string:  1           5  6
  beta-string:     2  3  4

 Coefficient of determinant       141 is      0.22116572  2.21165720E-01
 alpha-string:           4  5  6
  beta-string:  1  2  3


  Printout of coefficients in interval   0.1000E+00 to  0.1000E+00
  ==============================================================
   ( no coefficients )

 Norm of printed part of CI vector ..      0.91259285

  Magnitude of CI coefficients
  ============================

  ( Ranges are relative to norm of vector :  1.00E+00 )

  10- 1 to 10- 0        14    0.91259285E+00    0.91259285E+00
  10- 2 to 10- 1        50    0.86890195E-01    0.99948305E+00
  10- 3 to 10- 2        22    0.50844664E-03    0.99999150E+00
  10- 4 to 10- 3        36    0.84309821E-05    0.99999993E+00
  10- 5 to 10- 4        26    0.73458201E-07    0.10000000E+01
  Number of coefficients less than 10^-11 times norm is             0


 Time used in polarization propagator calculation is      0.36 CPU seconds for symmetry 8

  Total CPU  time used in RESPONSE:   2.65 seconds
  Total wall time used in RESPONSE:   4.03 seconds


                   .-------------------------------------------.
                   | End of Dynamic Property Section (RESPONS) |
                   `-------------------------------------------'

  Total CPU  time used in DALTON:   2.81 seconds
  Total wall time used in DALTON:   5.07 seconds

 NOTE:    1 warnings have been issued.
 Check output, result, and error files for "WARNING".

 
     Date and time (Linux)  : Wed Jul  8 13:19:33 2026
     Host name              : n-62-31-23                              
