

     ************************************************************************
     *************** Dalton - An Electronic Structure Program ***************
     ************************************************************************

    This is output from DALTON release Dalton2024.0-dev (2024)
         ( Web site: http://daltonprogram.org )

   ----------------------------------------------------------------------------

    NOTE:
     
    Dalton is an experimental code for the evaluation of molecular
    properties using (MC)SCF, DFT, CI, and CC wave functions.
    The authors accept no responsibility for the performance of
    the code or for the correctness of the results.
     
    The code (in whole or part) is provided under a licence and
    is not to be reproduced for further distribution without
    the written permission of the authors or their representatives.
     
    See the home page "http://daltonprogram.org" for further information.
     
    If results obtained with this code are published,
    the appropriate citations would be both of:
     
       K. Aidas, C. Angeli, K. L. Bak, V. Bakken,
       R. Bast, L. Boman, O. Christiansen, R. Cimiraglia,
       S. Coriani, P. Dahle, E. K. Dalskov, U. Ekstroem,
       T. Enevoldsen, J. J. Eriksen, P. Ettenhuber, B. Fernandez,
       L. Ferrighi, H. Fliegl, L. Frediani, K. Hald, A. Halkier,
       C. Haettig, H. Heiberg, T. Helgaker, A. C. Hennum,
       H. Hettema, E. Hjertenaes, S. Hoest, I.-M. Hoeyvik,
       M. F. Iozzi, B. Jansik, H. J. Aa. Jensen, D. Jonsson,
       P. Joergensen, J. Kauczor, S. Kirpekar,
       T. Kjaergaard, W. Klopper, S. Knecht, R. Kobayashi, H. Koch,
       J. Kongsted, A. Krapp, K. Kristensen, A. Ligabue,
       O. B. Lutnaes, J. I. Melo, K. V. Mikkelsen, R. H. Myhre,
       C. Neiss, C. B. Nielsen, P. Norman, J. Olsen,
       J. M. H. Olsen, A. Osted, M. J. Packer, F. Pawlowski,
       T. B. Pedersen, P. F. Provasi, S. Reine, Z. Rinkevicius,
       T. A. Ruden, K. Ruud, V. Rybkin, P. Salek, C. C. M. Samson,
       A. Sanchez de Meras, T. Saue, S. P. A. Sauer,
       B. Schimmelpfennig, K. Sneskov, A. H. Steindal,
       K. O. Sylvester-Hvid, P. R. Taylor, A. M. Teale,
       E. I. Tellgren, D. P. Tew, A. J. Thorvaldsen, L. Thoegersen,
       O. Vahtras, M. A. Watson, D. J. D. Wilson, M. Ziolkowski
       and H. Agren,
       "The Dalton quantum chemistry program system",
       WIREs Comput. Mol. Sci. 2014, 4:269-284 (doi: 10.1002/wcms.1172)
     
    and
     
       Dalton, a molecular electronic structure program,
       Release Dalton2024.0-dev (2024), see http://daltonprogram.org
   ----------------------------------------------------------------------------

    Authors in alphabetical order (Major contribution(s) in parenthesis):

  Kestutis Aidas,              Vilnius University,        Lithuania   (QM/MM)
  Celestino Angeli,            University of Ferrara,     Italy       (NEVPT2)
  Juan J. Aucar,               Northeast National UniversiArgentina   (LRESC, Relativistic Effects on EFG)
  Keld L. Bak,                 UNI-C,                     Denmark     (AOSOPPA, non-adiabatic coupling, magnetic properties)
  Vebjoern Bakken,             University of Oslo,        Norway      (DALTON; geometry optimizer, symmetry detection)
  Radovan Bast,                UiT The Arctic U. of NorwayNorway      (DALTON installation and execution frameworks)
  Pablo Baudin,                University of Valencia,    Spain       (Cholesky excitation energies)
  Linus Boman,                 NTNU,                      Norway      (Cholesky decomposition and subsystems)
  Bruno N. Cabral Tenorio,     Technical Univ. of Denmark,Denmark     (Lanczos-based CC methods)
  Ove Christiansen,            Aarhus University,         Denmark     (CC module)
  Renzo Cimiraglia,            University of Ferrara,     Italy       (NEVPT2)
  Sonia Coriani,               Technical Univ. of Denmark,Denmark     (CC and RESPONS modules)
  Janusz Cukras,               University of Warsaw,      Poland      (MChD in RESPONS)
  Paal Dahle,                  University of Oslo,        Norway      (Parallelization)
  Erik K. Dalskov,             UNI-C,                     Denmark     (SOPPA)
  Thomas Enevoldsen,           Univ. of Southern Denmark, Denmark     (SOPPA)
  Janus J. Eriksen,            Aarhus University,         Denmark     (Polarizable embedding, TDA)
  Rasmus Faber,                Technical Univ. of Denmark,Denmark     (Vib.avg. NMR w. SOPPA, parallel AO-SOPPA, CVS-CC and EOMCC)
  Tobias Fahleson,             KTH Stockholm,             Sweden      (Damped cubic response)
  Berta Fernandez,             U. of Santiago de CompostelSpain       (Doublet spin, ESR in RESPONS)
  Lara Ferrighi,               Aarhus University,         Denmark     (PCM Cubic response)
  Heike Fliegl,                University of Oslo,        Norway      (CCSD(R12))
  Luca Frediani,               UiT The Arctic U. of NorwayNorway      (PCM)
  Emmanuel Fromager,           Univ. Strasbourg,          France      (MC-srDFT)
  Bin Gao,                     UiT The Arctic U. of NorwayNorway      (Gen1Int library)
  Andre S. P. Gomes,           CNRS/Universite de Lille,  France      (Frozen density embedding)
  Christof Haettig,            Ruhr-University Bochum,    Germany     (CC module)
  Kasper Hald,                 Aarhus University,         Denmark     (CC module)
  Asger Halkier,               Aarhus University,         Denmark     (CC module)
  Frederik Beyer Hansen,       University of Copenhagen,  Denmark     (Parallel AO-SOPPA)
  Erik D. Hedegaard,           Univ. of Southern Denmark, Denmark     (Polarizable embedding, QM/MM, and MC-srDFT)
  Hanne Heiberg,               University of Oslo,        Norway      (Geometry analysis, selected one-electron integrals)
  Trygve Helgaker,             University of Oslo,        Norway      (DALTON; ABACUS, ERI, DFT modules, London, and much more)
  Alf Christian Hennum,        University of Oslo,        Norway      (Parity violation)
  Hinne Hettema,               University of Auckland,    New Zealand (Quadratic response in RESPONS; SIRIUS supersymmetry)
  Andreas E. Hillers-Bendtsen, University of Copenhagen,  Denmark     (MP3)
  Eirik Hjertenaes,            NTNU,                      Norway      (Cholesky decomposition)
  Nicolai Machholdt Hoeyer,    Aarhus University,         Denmark     (MP3)
  Pi A. B. Haase,              University of Copenhagen,  Denmark     (Triplet AO-SOPPA)
  Maria Francesca Iozzi,       University of Oslo,        Norway      (RPA)
  Christoph Jacob,             TU Braunschweig            Germany     (Frozen density embedding)
  Brano Jansik,                Technical Univ. of Ostrava Czech Rep.  (DFT cubic response)
  Hans Joergen Aa. Jensen,     Univ. of Southern Denmark, Denmark     (DALTON; SIRIUS, RESPONS, ABACUS, MC-srDFT, and much more)
  Dan Jonsson,                 UiT The Arctic U. of NorwayNorway      (Cubic response in RESPONS module)
  Poul Joergensen,             Aarhus University,         Denmark     (RESPONS, ABACUS, and CC modules)
  Maciej Kaminski,             University of Warsaw,      Poland      (CPPh in RESPONS)
  Joanna Kauczor,              Linkoeping University,     Sweden      (Complex polarization propagator (CPP) module)
  Sheela Kirpekar,             Univ. of Southern Denmark, Denmark     (Mass-velocity & Darwin integrals)
  Frederik Oersted Kjeldal,    Technical Univ. of Denmark,Denmark     (MP3)
  Erik Kjellgren,              Univ. of Southern Denmark, Denmark     (MC-srDFT)
  Wim Klopper,                 KIT Karlsruhe,             Germany     (R12 code in CC, SIRIUS, and ABACUS modules)
  Stefan Knecht,               ETH Zurich,                Switzerland (Parallel CI and MCSCF, MC-srDFT)
  Rika Kobayashi,              Australian National Univ., Australia   (DIIS in CC, London in MCSCF)
  Henrik Koch,                 NTNU,                      Norway      (CC module, Cholesky decomposition)
  Jacob Kongsted,              Univ. of Southern Denmark, Denmark     (Polarizable embedding, polarizable density embedding, QM/MM)
  Andrea Ligabue,              University of Modena,      Italy       (CTOCD, AOSOPPA)
  Nanna H. List,               Univ. of Southern Denmark, Denmark     (Polarizable embedding)
  Ola B. Lutnaes,              University of Oslo,        Norway      (DFT Hessian)
  Juan I. Melo,                University of Buenos Aires,Argentina   (LRESC, Relativistic Effects on NMR Shieldings)
  Kurt V. Mikkelsen,           University of Copenhagen,  Denmark     (MC-SCRF, QM/MM, and MP3)
  Rolf H. Myhre,               NTNU,                      Norway      (Subsystems and CC3)
  Christian Neiss,             Univ. Erlangen-Nuernberg,  Germany     (CCSD(R12))
  Christian B. Nielsen,        University of Copenhagen,  Denmark     (QM/MM)
  Patrick Norman,              KTH Stockholm,             Sweden      (Cubic response and complex frequency response in RESPONS)
  Jeppe Olsen,                 Aarhus University,         Denmark     (SIRIUS CI/density modules)
  Jogvan Magnus H. Olsen,      Aarhus University,         Denmark     (Polarizable embedding and polarizable density embedding)
  Anders Osted,                Copenhagen University,     Denmark     (QM/MM)
  Martin J. Packer,            University of Sheffield,   UK          (SOPPA)
  Filip Pawlowski,             Kazimierz Wielki UniversityPoland      (CC3)
  Morten N. Pedersen,          Univ. of Southern Denmark, Denmark     (Polarizable embedding)
  Thomas B. Pedersen,          University of Oslo,        Norway      (Cholesky decomposition)
  Patricio F. Provasi,         University of Northeastern,Argentina   (Analysis of coupling constants in localized orbitals)
  Peter Reinholdt,             Univ. of Southern Denmark, Denmark     (Polarizable embedding and polarizable density embedding)
  Zilvinas Rinkevicius,        KTH Stockholm,             Sweden      (open-shell DFT, ESR)
  Elias Rudberg,               KTH Stockholm,             Sweden      (DFT grid and basis info)
  Torgeir A. Ruden,            University of Oslo,        Norway      (Numerical derivatives in ABACUS)
  Kenneth Ruud,                UiT The Arctic U. of NorwayNorway      (DALTON; ABACUS magnetic properties and much more)
  Pawel Salek,                 KTH Stockholm,             Sweden      (DALTON; DFT code)
  Claire C. M. Samson,         University of Karlsruhe    Germany     (Boys localization, r12 integrals in ERI)
  Alfredo Sanchez de Meras,    University of Valencia,    Spain       (CC module, Cholesky decomposition)
  Trond Saue,                  Paul Sabatier University,  France      (direct Fock matrix construction)
  Stephan P. A. Sauer,         University of Copenhagen,  Denmark     (SOPPA(CCSD), SOPPA prop., AOSOPPA, vibrational g-factors)
  Bernd Schimmelpfennig,       Forschungszentrum KarlsruheGermany     (AMFI module)
  Anna K. Schnack-Petersen,    University of Copenhagen,  Denmark     (RPA(D) and HRPA(D) properties in AOSOPPA)
  Kristian Sneskov,            Aarhus University,         Denmark     (Polarizable embedding, QM/MM)
  Arnfinn H. Steindal,         UiT The Arctic U. of NorwayNorway      (parallel QM/MM, polarizable embedding)
  Casper Steinmann,            Aalborg University,        Denmark     (QFIT, polarizable embedding)
  K. O. Sylvester-Hvid,        University of Copenhagen,  Denmark     (MC-SCRF)
  Peter R. Taylor,             VLSCI/Univ. of Melbourne,  Australia   (Symmetry handling ABACUS, integral transformation)
  Andrew M. Teale,             University of Nottingham,  England     (DFT-AC, DFT-D)
  David P. Tew,                University of Bristol,     England     (CCSD(R12))
  Julien Toulouse,             Sorbonne Univ.,            France      (MC-srDFT)
  Olav Vahtras,                KTH Stockholm,             Sweden      (Triplet response, spin-orbit, ESR, TDDFT, open-shell DFT)
  Lucas Visscher,              Vrije Universiteit AmsterdaNetherlands (Frozen density embedding)
  David J. Wilson,             La Trobe University,       Australia   (DFT Hessian and DFT magnetizabilities)
  Luna Zamok,                  University of Copenhagen,  Denmark     (Block Lanczos RPA solver in SOPPA module)
  Hans Agren,                  KTH Stockholm,             Sweden      (SIRIUS module, RESPONS, MC-SCRF solvation)
 --------------------------------------------------------------------------------

     Date and time (Linux)  : Tue Jul  7 15:15:49 2026
     Host name              : n-62-31-23                              

 * Work memory size             :   512000000 =  3.815 gigabytes.

 * Directories for basis set searches:
   1) /work3/jochar/DaltonTests
   2) /zhome/d7/7/119775/My_Codes/Dalton_Release/dalton/build_omp_nov24/basis


Compilation information
-----------------------

 Who compiled             | soco
 Host                     | hpclogin1
 System                   | Linux-6.1.112-1.el9.elrepo.x86_64
 CMake generator          | Unix Makefiles
 Processor                | x86_64
 64-bit integers          | OFF
 MPI                      | OFF
 Fortran compiler         | /appl/intel/2023.2.0.49397/compiler/2023.2.0/linux
                          | /bin/intel64/ifort
 Fortran compiler version | ifort (IFORT) 2021.10.0 20230609
 C compiler               | /appl/intel/2023.2.0.49397/compiler/2023.2.0/linux
                          | /bin/intel64/icc
 C compiler version       | icc (ICC) 2021.10.0 20230609
 C++ compiler             | /appl/intel/2023.2.0.49397/compiler/2023.2.0/linux
                          | /bin/intel64/icpc
 C++ compiler version     | icpc (ICC) 2021.10.0 20230609
 Static linking           | OFF
 Last Git revision        | a531ac4fbf115ebda1c90140ce3fd6aa236a2033
 Git branch               | master
 Configuration time       | 2024-11-14 11:23:30.470039

 * Sequential calculation.


   Content of the .dal input file
 ----------------------------------

**DALTON INPUT
.RUN WAVE FUNCTIONS   !tipo di calcolo
.RUN RESPONSE
**INTEGRALS
.DIPLEN               !integrali dell'operatore dipolo elettrico
**WAVE FUNCTION
.HF
.CI
!*PRINT
!.PRINTL
!   0 11
*SCF INP              !parte da Hartree-Fock
.DOUBLY OCCUPIED
5
.THRESH               !soglia di convergenza
 1.0D-10
*CONFIGURATION INPUT
.SPIN MULTIPLICITY
1
.SYMMETRY
1
.INACTIVE ORBITALS !the inner electrons are kept frozen
2
.CAS SPACE
5
.ELECTRONS
6
**RESPONS
*LINEAR
.THCLR
1.0d-9
.DIPLEN
.SINGLE RESIDUE
.ROOTS
300
**END OF INPUT


   Content of the .mol file
 ----------------------------

BASIS
STO-3G
test VQE
dalton test
Atomtypes=2 Angstrom Nosymmetry
Charge=8.0 Atoms=1
O     0.1035000000000000  0.0000000000000000  0.0
Charge=1.0 Atoms=2
H    -0.4640000000000000  0.7956000000000000  0.0
H    -0.4640000000000000  -0.7956000000000000  0.0


       *******************************************************************
       *********** Output from DALTON general input processing ***********
       *******************************************************************

 --------------------------------------------------------------------------------
   Overall default print level:    0
   Print level for DALTON.STAT:    1

    HERMIT 1- and 2-electron integral sections will be executed
    "Old" integral transformation used (limited to max 255 basis functions)
    Wave function sections will be executed (SIRIUS module)
    Dynamic molecular response properties section will be executed (RESPONSE module)
 --------------------------------------------------------------------------------


   ****************************************************************************
   *************** Output of molecule and basis set information ***************
   ****************************************************************************


    The two title cards from your ".mol" input:
    --------------------------------------------------------------------------------
 1: test VQE
 2: dalton test
    --------------------------------------------------------------------------------

  Coordinates are entered in Angstrom and converted to atomic units.
          - Conversion factor : 1 bohr = 0.52917721 A

  Atomic type no.    1
  --------------------
  Nuclear charge:   8.00000
  Number of symmetry independent centers:    1
  Number of basis sets to read;    2
  Basis set file used for this atomic type with Z =   8 :
     "/zhome/d7/7/119775/My_Codes/Dalton_Release/dalton/build_omp_nov24/basis/STO-3G"

  Atomic type no.    2
  --------------------
  Nuclear charge:   1.00000
  Number of symmetry independent centers:    2
  Number of basis sets to read;    2
  Basis set file used for this atomic type with Z =   1 :
     "/zhome/d7/7/119775/My_Codes/Dalton_Release/dalton/build_omp_nov24/basis/STO-3G"


                         SYMGRP: Point group information
                         -------------------------------

@    Point group: C1 


                                 Isotopic Masses
                                 ---------------

                           O          15.994915
                           H           1.007825
                           H           1.007825

                       Total mass:    18.010565 amu
                       Natural abundance:  99.730 %

 Center-of-mass coordinates (a.u.):    0.075567    0.000000    0.000000
 Center-of-mass coordinates (Angs):    0.039988    0.000000    0.000000


  Atoms and basis sets
  --------------------

  Number of atom types :    2
  Total number of atoms:    3

  Basis set used is "STO-3G" from the basis set library.

  label    atoms   charge   prim   cont     basis
  ----------------------------------------------------------------------
  O           1    8.0000    15     5      [6s3p|2s1p]                                        
  H           2    1.0000     3     1      [3s|1s]                                            
  ----------------------------------------------------------------------
  total:      3   10.0000    21     7
  ----------------------------------------------------------------------

  Threshold for neglecting AO integrals:  1.00D-12


  Cartesian Coordinates (a.u.)
  ----------------------------

  Total number of coordinates:    9
  O       :     1  x   0.1955866539    2  y   0.0000000000    3  z   0.0000000000
  H       :     4  x  -0.8768329220    5  y   1.5034661050    6  z   0.0000000000
  H       :     7  x  -0.8768329220    8  y  -1.5034661050    9  z   0.0000000000


   Interatomic separations (in Angstrom):
   --------------------------------------

            O           H           H     
            ------      ------      ------
 O     :    0.000000
 H     :    0.977259    0.000000
 H     :    0.977259    1.591200    0.000000


  Max    interatomic separation is    1.5912 Angstrom (    3.0069 Bohr)
  between atoms    3 and    2, "H     " and "H     ".

  Min HX interatomic separation is    0.9773 Angstrom (    1.8468 Bohr)


  Bond distances (Angstrom):
  --------------------------

                  atom 1     atom 2       distance
                  ------     ------       --------
  bond distance:  H          O            0.977259
  bond distance:  H          O            0.977259


  Bond angles (degrees):
  ----------------------

                  atom 1     atom 2     atom 3         angle
                  ------     ------     ------         -----
  bond angle:     H          O          H            109.000




 Principal moments of inertia (u*A**2) and principal axes
 --------------------------------------------------------

   IA       0.576503          0.000000    1.000000    0.000000
   IB       1.275865          1.000000    0.000000    0.000000
   IC       1.852368          0.000000    0.000000    1.000000


 Rotational constants
 --------------------

@    The molecule is planar.

               A                   B                   C

         876628.8169         396107.0071         272828.6660 MHz
           29.241190           13.212708            9.100585 cm-1


@  Nuclear repulsion energy :    8.996423008986 Hartree


                     .---------------------------------------.
                     | Starting in Integral Section (HERMIT) |
                     `---------------------------------------'



 ***************************************************************************************
 ****************** Output from **INTEGRALS input processing (HERMIT) ******************
 ***************************************************************************************



    *************************************************************************
    ****************** Output from HERMIT input processing ******************
    *************************************************************************


 Default print level:        1

 Calculation of one- and two-electron Hamiltonian integrals.

 The following one-electron property integrals are calculated as requested:
          - overlap integrals
          - dipole length integrals

 Center of mass  (bohr):      0.075566958928      0.000000000000      0.000000000000
 Operator center (bohr):      0.000000000000      0.000000000000      0.000000000000
 Gauge origin    (bohr):      0.000000000000      0.000000000000      0.000000000000
 Dipole origin   (bohr):      0.000000000000      0.000000000000      0.000000000000

Calculation of 2-electron integrals are postponed until they are needed.


     ************************************************************************
     ************************** Output from HERINT **************************
     ************************************************************************



                      Nuclear contribution to dipole moments
                      --------------------------------------

                 au               Debye          C m (/(10**-30)

      x     -0.18897261        -0.48032044        -1.60217653
      y      0.00000000         0.00000000         0.00000000
      z      0.00000000         0.00000000         0.00000000


  Total CPU  time used in HERMIT:   0.01 seconds
  Total wall time used in HERMIT:   0.04 seconds


                        .----------------------------------.
                        | End of Integral Section (HERMIT) |
                        `----------------------------------'



                   .--------------------------------------------.
                   | Starting in Wave Function Section (SIRIUS) |
                   `--------------------------------------------'


     WARNING  Reference state is required for CI response and CI-NO
     WARNING  ".STATE" was not specified for "*CI INPUT",
     WARNING  the reference state is set to be state no.  1

 *** Output from Huckel module :

     Using EWMO model:          T
     Using EHT  model:          F
     Number of Huckel orbitals each symmetry:    7

 EWMO - Energy Weighted Maximum Overlap - is a Huckel type method,
        which normally is better than Extended Huckel Theory.
 Reference: Linderberg and Ohrn, Propagators in Quantum Chemistry (Wiley, 1973)

 Huckel EWMO eigenvalues for symmetry :  1
          -20.684655      -1.594745      -0.787122      -0.682665      -0.616200
           -0.240931      -0.173582

 **********************************************************************
 *SIRIUS* a direct, restricted step, second order MCSCF program       *
 **********************************************************************

 
     Date and time (Linux)  : Tue Jul  7 15:15:50 2026
     Host name              : n-62-31-23                              

 Title lines from ".mol" input file:
     test VQE
     dalton test

 Print level on unit LUPRI =   2 is   0
 Print level on unit LUW4  =   2 is   5

@    Configuration interaction calculation.

@    CI response calculation.

@    CI type: user specified active spaces.
@              Type: complete active space calculation (CAS).

@    This is a combination run starting with
@              a restricted, closed shell Hartree-Fock calculation


 Initial molecular orbitals are obtained according to
 ".MOSTART EWMO  " input option

     Wave function specification
     ============================
@    Wave function type        --- CI ---
@    Number of closed shell electrons           4
@    Number of electrons in active shells       6
@    Total charge of the molecule               0

@    Spin multiplicity and 2 M_S                1         0
@    Total number of symmetries                 1 (point group: C1 )
@    Reference state symmetry                   1 (irrep name : A  )

     Orbital specifications
     ======================
@    Abelian symmetry species          All |    1
@                                          |  A  
                                       --- |  ---
@    Inactive orbitals                   2 |    2
@    Active orbitals                     5 |    5
@    Secondary orbitals                  0 |    0
@    Total number of orbitals            7 |    7
@    Number of basis functions           7 |    7

      -- Initial occupation of symmetries is determined from user input.                      
      -- Initial occupation of symmetries is :
@    Occupied SCF orbitals               5 |    5

     Optimization information
     ========================
@    Number of configurations                50
@    Number of orbital rotations              0
     ------------------------------------------
@    Total number of variables               50

     Maximum number of CI iterations         25
     Threshold for CI convergence      1.00D-05
     Number of CI roots to converge           1

@    Reference state in CI response calculation :       1


 ***********************************************
 ***** DIIS acceleration of SCF iterations *****
 ***********************************************

 C1-DIIS algorithm; max error vectors =    8

 Iter      Total energy        Error norm    Delta(E)  DIIS dim.
 -----------------------------------------------------------------------------

Calculating AOSUPINT

---> (Re)generating AOTWOINT


     ************************************************************************
     ************************** Output from HERINT **************************
     ************************************************************************


 Threshold for neglecting two-electron integrals:  1.00D-12
 HERMIT - Number of two-electron integrals written:         228 ( 56.2% )
 HERMIT - Megabytes written:                              0.137

     (Precalculated AO two-electron integrals are transformed to P-supermatrix elements.
      Threshold for discarding integrals :  1.00D-12 )

@  1    -74.9147546503        7.22428D-01   -7.49D+01    1
      Virial theorem: -V/T =      2.004517
@    MULPOP   O      -0.46; H       0.23; H       0.23; 
   1  Level shift: doubly occupied orbital energies shifted by -2.00D-01
 -----------------------------------------------------------------------------
@  2    -74.9573554605        2.18829D-01   -4.26D-02    2
      Virial theorem: -V/T =      2.006532
@    MULPOP   O      -0.37; H       0.18; H       0.18; 
   2  Level shift: doubly occupied orbital energies shifted by -1.00D-01
 -----------------------------------------------------------------------------
@  3    -74.9622160084        3.60736D-02   -4.86D-03    3
      Virial theorem: -V/T =      2.005790
@    MULPOP   O      -0.36; H       0.18; H       0.18; 
   3  Level shift: doubly occupied orbital energies shifted by -2.50D-02
 -----------------------------------------------------------------------------
@  4    -74.9623530973        2.91022D-03   -1.37D-04    4
      Virial theorem: -V/T =      2.005607
@    MULPOP   O      -0.36; H       0.18; H       0.18; 
 -----------------------------------------------------------------------------
@  5    -74.9623547782        3.33498D-04   -1.68D-06    5
      Virial theorem: -V/T =      2.005590
@    MULPOP   O      -0.36; H       0.18; H       0.18; 
 -----------------------------------------------------------------------------
@  6    -74.9623547998        8.44260D-06   -2.15D-08    6
      Virial theorem: -V/T =      2.005591
@    MULPOP   O      -0.36; H       0.18; H       0.18; 
 -----------------------------------------------------------------------------
@  7    -74.9623547998        5.44501D-08   -1.04D-11    7
      Virial theorem: -V/T =      2.005591
@    MULPOP   O      -0.36; H       0.18; H       0.18; 
 -----------------------------------------------------------------------------
@  8    -74.9623547998        1.29942D-09    0.00D+00    8
      Virial theorem: -V/T =      2.005591
@    MULPOP   O      -0.36; H       0.18; H       0.18; 
 -----------------------------------------------------------------------------
@  9    -74.9623547998        2.89494D-08    0.00D+00    8
      Virial theorem: -V/T =      2.005591
@    MULPOP   O      -0.36; H       0.18; H       0.18; 
 -----------------------------------------------------------------------------
@ 10    -74.9623547998        9.82237D-15    2.84D-14    8

@ *** DIIS converged in  10 iterations !
@     Converged SCF energy, gradient:    -74.962354799773    9.82D-15
    - total time used in SIRFCK :              0.00 seconds

 --- Writing SIRIFC interface file

--------------------------------------------------------------------------------


     .--------------------------------------------------.
     | HF-SCF KT IPs [a.u. & eV] from Koopmans' theorem |
     `--------------------------------------------------'


     HF-SCF KT symmetry 1 ( A  ) in point group C1  -- 5 principal poles with pole strength 1

   ============  ============  ============  ============  ============
      20.237430      1.253011      0.614069      0.439628      0.386334
     550.688496     34.096172     16.709655     11.962878     10.512676
   ============  ============  ============  ============  ============

@ Summary of HF-SCF KT ionization potentials [eV]:

@ Symmetry 1 (A  ) :   550.688      34.096      16.710      11.963      10.513

  === End of HF-SCF KT output ===
--------------------------------------------------------------------------------


 CPU and wall time for SCF :       0.059       0.369


 ----- Output from SIRIUS CI module (CICTL) -----




 2-el. integral transformation level 0: Total CPU and WALL times (sec)       0.006       0.041

 (CIST1) 8 lowest diagonal elements:

 Element no. Config.no.    Active energy      Total energy

         1 :          1    -12.6836294211    -74.9623547998
         2 :         11    -12.2655182518    -74.5442436305
         3 :         12    -12.1659162968    -74.4446416755
         4 :         14    -12.1432008004    -74.4219261791
         5 :         15    -12.0519568265    -74.3306822052
         6 :         17    -11.9840813890    -74.2628067677
         7 :         18    -11.7919092748    -74.0706346535
         8 :         41    -11.5448171534    -73.8235425321

Lowest 1 elements are used as separate start CI vectors.


 Convergence threshold for CI optimization :     0.00001000


 CI root     eigenvalue        residual norm

    1      -74.9623547998        0.2426911517

 CI root     eigenvalue        residual norm

    1      -74.9962967358        0.0440849386

 CI root     eigenvalue        residual norm

    1      -74.9974213177        0.0121603517

 CI root     eigenvalue        residual norm

    1      -74.9974941974        0.0011836528

 CI root     eigenvalue        residual norm

    1      -74.9974949588        0.0001940731

 CI root     eigenvalue        residual norm

    1      -74.9974949806        0.0000242181

 CI root     eigenvalue        residual norm

    1      -74.9974949810        0.0000063291 converged

 The requested root number is now converged.


 *** CI converged in  7 iterations.



@ Final CI energies and residuals in symmetry 1 (irrep A  )
@    1      -74.997494981025440       6.33D-06

 Writing SIRIFC interface file for CI root no. 1

 CPU and wall time for CI :       0.017       0.122


                       .-----------------------------------.
                       | --- Final results from SIRIUS --- |
                       `-----------------------------------'


@    Spin multiplicity:           1
@    Spatial symmetry:            1 ( irrep  A   in C1  )
@    Total charge of molecule:    0

@    This was a CI calculation.
@    State number:                1

@    Final CI energy:             -74.997494981025
@    Nuclear repulsion:             8.996423008986
@    Electronic energy:           -83.993917990011

@    Final gradient norm:           0.000006329123

 
     Date and time (Linux)  : Tue Jul  7 15:15:50 2026
     Host name              : n-62-31-23                              

 Occupancies of natural orbitals
 -------------------------------

 Symmetry 1  ( A  ) -- Total occupation in this symmetry is  10.000000000

   2.000000000   2.000000000   1.975976452   1.983542127   1.998008091
   0.018110794   0.024362537

  Effective numbers of unpaired electrons this symmetry Eqs. 1) and 2):  0.17  0.01

  Total effective number of unpaired electrons :
  Eq. 1) sum(i) [(2 - n_i) n_i]    =  0.1681
  Eq. 2) sum(i) [(2 - n_i) n_i]**2 =  0.0069
 (Reference: M. Head-Gordon, Chemical Physics Letters 372 (2003) 508-511)

  --- NOTE THAT THE OCCUPATION NUMBERS ARE FOR ANALYSIS PURPOSE ONLY
  --- The orbital coefficients have NOT been transformed
  --- to ordered natural orbitals.

File label for MO orbitals:   7Jul26    CIORB  

 (Only coefficients > 0.0100 are printed.)

 Molecular orbitals for symmetry species 1  (A  )
 ------------------------------------------------

    Orbital         1        2        3        4        5        6        7
   1 O   :1s    -0.9942   0.2339   0.0000   0.0993  -0.0000   0.1315  -0.0000
   2 O   :1s    -0.0262  -0.8416  -0.0000  -0.5170   0.0000  -0.8601   0.0000
   3 O   :2px    0.0040   0.1182  -0.0000  -0.7863   0.0000   0.7166  -0.0000
   4 O   :2py    0.0000  -0.0000  -0.5996  -0.0000   0.0000  -0.0000  -0.9917
   5 O   :2pz   -0.0000  -0.0000  -0.0000  -0.0000  -1.0000   0.0000   0.0000
   6 H   :1s     0.0058  -0.1581  -0.4440   0.2807   0.0000   0.7874   0.8181
   7 H   :1s     0.0058  -0.1581   0.4440   0.2807  -0.0000   0.7874  -0.8181

 Printout of CI-coefficients abs greater than 0.05000 for root  1
 *** NOTE: this root is the CI reference state ***

 Printout of coefficients in interval  3.1623E-01 to  1.0000E+00
 ===============================================================

  Coefficient of CSF no.         1 is      0.98891904    9.88919042E-01
  Orbital          1   2   3
  Spin coupling    2   2   2

 Printout of coefficients in interval  1.0000E-01 to  3.1623E-01
 ===============================================================
   ( no coefficients )

 Printout of coefficients in interval  5.0000E-02 to  1.0000E-01
 ===============================================================

  Coefficient of CSF no.         7 is     -0.07656039   -7.65603949E-02
  Orbital          2   3   5
  Spin coupling    2   2   2

  Coefficient of CSF no.        46 is     -0.08549644   -8.54964407E-02
  Orbital          3   1   2   4   5
  Spin coupling    2   1  -1   1  -1

 Norm of printed CI vector ..      0.99113201

 Magnitude of CI coefficients
 ============================
 ( Ranges are relative to norm of vector :  1.00E+00 )

  10- 1 to 10- 0         1    0.97796087E+00      0.9779608716
  10- 2 to 10- 1         9    0.21909325E-01      0.9998701966
  10- 3 to 10- 2         7    0.12976204E-03      0.9999999586
  10- 4 to 10- 3         1    0.41355494E-07      1.0000000000
  Number of coefficients less than 10^-11 times norm is           32

  Total CPU  time used in SIRIUS :   0.10 seconds
  Total wall time used in SIRIUS :   0.62 seconds

 
     Date and time (Linux)  : Tue Jul  7 15:15:50 2026
     Host name              : n-62-31-23                              


                     .---------------------------------------.
                     | End of Wave Function Section (SIRIUS) |
                     `---------------------------------------'



                 .------------------------------------------------.
                 | Starting in Dynamic Property Section (RESPONS) |
                 `------------------------------------------------'


 ----------------------------------------------------------------------------------------
  RESPONSE  -  an MCSCF, MC-srDFT, DFT, SOPPA and SOPPA-srDFT response property program
 ----------------------------------------------------------------------------------------

 This is a configuration interaction response calculation.
   Note: this is equivalent to a CI sum-over-states calculation of response properties.


 -------- OUTPUT FROM RESPONSE INPUT PROCESSING --------




  Linear Response single residue calculation
 -------------------------------------------


    4 input options by user.

 Print level                                    : IPRPP  =   2
 Maximum number of iterations for eigenval.eqs. : MAXITP =  60
 Threshold for convergence of eigenvalue eqs.   : THCPP  = 1.000D-03
 Maximum iterations in optimal orbital algorithm: MAXITO =   5

    300 Excitation energies are calculated for symmetry no.    1

      3 property residues are calculated with labels:

               XDIPLEN 
               YDIPLEN 
               ZDIPLEN 

 Old direct access AO file found, SORTA skipped.

 2-el. integral transformation level 4: Total CPU and WALL times (sec)       0.005       0.074


 CI energy            :      -74.997494981025440
 -- inactive part     :      -62.278725378697835
 --   active part     :      -12.718769602327605
 -- nuclear repulsion :        8.996423008985666


                         *******************************
                         *** CI response calculation ***
                         *******************************

 ----------------------------------------------------------------
 ----- Linear response calculation
 ----- Symmetry of excitation/property operator(s)    1  ( A  )
 ----------------------------------------------------------------

 Number of excitations of this symmetry          300
 Number of response properties of this symmetry    0
 Number of C6/C8 properties of this symmetry       0


 Perturbation symmetry.     KSYMOP:           1
 Perturbation spin symmetry.TRPLET:           F
 Orbital variables.         KZWOPT:           0
 Configuration variables.   KZCONF:          50
 Total number of variables. KZVAR :          50

 ** RSPVAR ** Number of PP start vectors  300
   exceeds the maximum number of variables   49
   Number of start vectors reset to number of variables



 --- EXCITATION ENERGIES AND TRANSITION MOMENT CALCULATION (MCTDHF) ---

 Operator symmetry = 1  ( A  ); triplet =   F

RSPORT:    1 out of   50 new trial vectors linear dependent

 ** RSPCTL MICROITERATION NUMBER    1

      Root  Residual tot.,    conf., and orb.    Bnorm      Eigenvalue
      ----------------------------------------------------------------
         1    1.99310D-15  1.99D-15  0.00D+00  1.00D+00    4.28854D-01
         2    4.02049D-15  4.02D-15  0.00D+00  1.00D+00    5.33286D-01
         3    2.09086D-15  2.09D-15  0.00D+00  1.00D+00    5.67863D-01
         4    1.65706D-15  1.66D-15  0.00D+00  1.00D+00    6.74070D-01
         5    1.61843D-15  1.62D-15  0.00D+00  1.00D+00    8.00663D-01
         6    3.63147D-15  3.63D-15  0.00D+00  1.00D+00    9.75370D-01
         7    2.62507D-15  2.63D-15  0.00D+00  1.00D+00    1.04934D+00
         8    1.99688D-15  2.00D-15  0.00D+00  1.00D+00    1.06218D+00
         9    3.34657D-15  3.35D-15  0.00D+00  1.00D+00    1.07058D+00
        10    2.57479D-15  2.57D-15  0.00D+00  1.00D+00    1.18340D+00
        11    3.18094D-15  3.18D-15  0.00D+00  1.00D+00    1.22313D+00
        12    2.58854D-15  2.59D-15  0.00D+00  1.00D+00    1.29031D+00
        13    2.54836D-15  2.55D-15  0.00D+00  1.00D+00    1.32376D+00
        14    3.64818D-15  3.65D-15  0.00D+00  1.00D+00    1.34625D+00
        15    2.74992D-15  2.75D-15  0.00D+00  1.00D+00    1.35394D+00
        16    2.08202D-15  2.08D-15  0.00D+00  1.00D+00    1.37004D+00
        17    2.95600D-15  2.96D-15  0.00D+00  1.00D+00    1.40998D+00
        18    2.60561D-15  2.61D-15  0.00D+00  1.00D+00    1.46457D+00
        19    2.20212D-15  2.20D-15  0.00D+00  1.00D+00    1.52898D+00
        20    3.46576D-15  3.47D-15  0.00D+00  1.00D+00    1.53206D+00
        21    2.75175D-15  2.75D-15  0.00D+00  1.00D+00    1.53608D+00
        22    2.64285D-15  2.64D-15  0.00D+00  1.00D+00    1.55398D+00
        23    3.04524D-15  3.05D-15  0.00D+00  1.00D+00    1.56658D+00
        24    2.84506D-15  2.85D-15  0.00D+00  1.00D+00    1.63671D+00
        25    4.45812D-15  4.46D-15  0.00D+00  1.00D+00    1.72394D+00
        26    3.54247D-15  3.54D-15  0.00D+00  1.00D+00    1.79923D+00
        27    5.69034D-15  5.69D-15  0.00D+00  1.00D+00    1.90014D+00
        28    4.02439D-15  4.02D-15  0.00D+00  1.00D+00    1.92954D+00
        29    8.28492D-15  8.28D-15  0.00D+00  1.00D+00    1.95653D+00
        30    7.78268D-15  7.78D-15  0.00D+00  1.00D+00    1.97533D+00
        31    6.29450D-15  6.29D-15  0.00D+00  1.00D+00    1.99672D+00
        32    6.26728D-15  6.27D-15  0.00D+00  1.00D+00    2.06935D+00
        33    5.28884D-15  5.29D-15  0.00D+00  1.00D+00    2.10125D+00
        34    5.08587D-15  5.09D-15  0.00D+00  1.00D+00    2.14954D+00
        35    5.70539D-15  5.71D-15  0.00D+00  1.00D+00    2.15774D+00
        36    7.51232D-15  7.51D-15  0.00D+00  1.00D+00    2.17421D+00
        37    5.69111D-15  5.69D-15  0.00D+00  1.00D+00    2.20545D+00
        38    6.89674D-15  6.90D-15  0.00D+00  1.00D+00    2.21670D+00
        39    4.65050D-15  4.65D-15  0.00D+00  1.00D+00    2.29632D+00
        40    9.44112D-15  9.44D-15  0.00D+00  1.00D+00    2.31006D+00
        41    8.79048D-15  8.79D-15  0.00D+00  1.00D+00    2.34180D+00
        42    6.09299D-15  6.09D-15  0.00D+00  1.00D+00    2.37521D+00
        43    8.16705D-15  8.17D-15  0.00D+00  1.00D+00    2.52478D+00
        44    6.64162D-15  6.64D-15  0.00D+00  1.00D+00    2.95843D+00
        45    6.63497D-15  6.63D-15  0.00D+00  1.00D+00    2.96320D+00
        46    4.79686D-15  4.80D-15  0.00D+00  1.00D+00    3.03951D+00
        47    5.79783D-15  5.80D-15  0.00D+00  1.00D+00    3.06170D+00
        48    4.94696D-15  4.95D-15  0.00D+00  1.00D+00    3.07388D+00
        49    4.57412D-15  4.57D-15  0.00D+00  1.00D+00    3.25878D+00
        50    2.36378D-15  2.36D-15  0.00D+00  1.00D+00   -4.28854D-01

 *** THE REQUESTED   49 SOLUTION VECTORS CONVERGED

 Convergence of RSP solution vectors, threshold = 1.00D-03
 ---------------------------------------------------------------
 (dimension of paired reduced space:   98)
 RSP solution vector no.    1; norm of residual   1.99D-15
 RSP solution vector no.    2; norm of residual   4.02D-15
 RSP solution vector no.    3; norm of residual   2.09D-15
 RSP solution vector no.    4; norm of residual   1.66D-15
 RSP solution vector no.    5; norm of residual   1.62D-15
 RSP solution vector no.    6; norm of residual   3.63D-15
 RSP solution vector no.    7; norm of residual   2.63D-15
 RSP solution vector no.    8; norm of residual   2.00D-15
 RSP solution vector no.    9; norm of residual   3.35D-15
 RSP solution vector no.   10; norm of residual   2.57D-15
 RSP solution vector no.   11; norm of residual   3.18D-15
 RSP solution vector no.   12; norm of residual   2.59D-15
 RSP solution vector no.   13; norm of residual   2.55D-15
 RSP solution vector no.   14; norm of residual   3.65D-15
 RSP solution vector no.   15; norm of residual   2.75D-15
 RSP solution vector no.   16; norm of residual   2.08D-15
 RSP solution vector no.   17; norm of residual   2.96D-15
 RSP solution vector no.   18; norm of residual   2.61D-15
 RSP solution vector no.   19; norm of residual   2.20D-15
 RSP solution vector no.   20; norm of residual   3.47D-15
 RSP solution vector no.   21; norm of residual   2.75D-15
 RSP solution vector no.   22; norm of residual   2.64D-15
 RSP solution vector no.   23; norm of residual   3.05D-15
 RSP solution vector no.   24; norm of residual   2.85D-15
 RSP solution vector no.   25; norm of residual   4.46D-15
 RSP solution vector no.   26; norm of residual   3.54D-15
 RSP solution vector no.   27; norm of residual   5.69D-15
 RSP solution vector no.   28; norm of residual   4.02D-15
 RSP solution vector no.   29; norm of residual   8.28D-15
 RSP solution vector no.   30; norm of residual   7.78D-15
 RSP solution vector no.   31; norm of residual   6.29D-15
 RSP solution vector no.   32; norm of residual   6.27D-15
 RSP solution vector no.   33; norm of residual   5.29D-15
 RSP solution vector no.   34; norm of residual   5.09D-15
 RSP solution vector no.   35; norm of residual   5.71D-15
 RSP solution vector no.   36; norm of residual   7.51D-15
 RSP solution vector no.   37; norm of residual   5.69D-15
 RSP solution vector no.   38; norm of residual   6.90D-15
 RSP solution vector no.   39; norm of residual   4.65D-15
 RSP solution vector no.   40; norm of residual   9.44D-15
 RSP solution vector no.   41; norm of residual   8.79D-15
 RSP solution vector no.   42; norm of residual   6.09D-15
 RSP solution vector no.   43; norm of residual   8.17D-15
 RSP solution vector no.   44; norm of residual   6.64D-15
 RSP solution vector no.   45; norm of residual   6.63D-15
 RSP solution vector no.   46; norm of residual   4.80D-15
 RSP solution vector no.   47; norm of residual   5.80D-15
 RSP solution vector no.   48; norm of residual   4.95D-15
 RSP solution vector no.   49; norm of residual   4.57D-15

 *** RSPCTL MICROITERATIONS CONVERGED

@ Singlet transition operator label: XDIPLEN 
@ STATE NO:    1 *TRANSITION MOMENT:  2.14939717E-15 *ENERGY(eV):   11.669705    
@ STATE NO:    2 *TRANSITION MOMENT:  4.15869512E-15 *ENERGY(eV):   14.511443    
@ STATE NO:    3 *TRANSITION MOMENT:  0.43157851     *ENERGY(eV):   15.452328    
@ STATE NO:    4 *TRANSITION MOMENT: -3.30439465E-15 *ENERGY(eV):   18.342384    
@ STATE NO:    5 *TRANSITION MOMENT:  1.03345339E-14 *ENERGY(eV):   21.787150    
@ STATE NO:    6 *TRANSITION MOMENT:  0.27046922     *ENERGY(eV):   26.541156    
@ STATE NO:    7 *TRANSITION MOMENT: -2.22247519E-14 *ENERGY(eV):   28.553938    
@ STATE NO:    8 *TRANSITION MOMENT: -0.80358409     *ENERGY(eV):   28.903406    
@ STATE NO:    9 *TRANSITION MOMENT:  3.38433232E-14 *ENERGY(eV):   29.131898    
@ STATE NO:   10 *TRANSITION MOMENT: -0.10275756     *ENERGY(eV):   32.201842    
@ STATE NO:   11 *TRANSITION MOMENT: -3.13513903E-16 *ENERGY(eV):   33.283091    
@ STATE NO:   12 *TRANSITION MOMENT:  1.33307854E-15 *ENERGY(eV):   35.111114    
@ STATE NO:   13 *TRANSITION MOMENT:  5.37650453E-16 *ENERGY(eV):   36.021345    
@ STATE NO:   14 *TRANSITION MOMENT: -7.53753322E-03 *ENERGY(eV):   36.633445    
@ STATE NO:   15 *TRANSITION MOMENT:  9.52714750E-17 *ENERGY(eV):   36.842528    

@ Singlet transition operator label: YDIPLEN 
@ STATE NO:    1 *TRANSITION MOMENT:  4.25760068E-15 *ENERGY(eV):   11.669705    
@ STATE NO:    2 *TRANSITION MOMENT:  5.23446506E-15 *ENERGY(eV):   14.511443    
@ STATE NO:    3 *TRANSITION MOMENT: -2.59119549E-14 *ENERGY(eV):   15.452328    
@ STATE NO:    4 *TRANSITION MOMENT: -0.39912369     *ENERGY(eV):   18.342384    
@ STATE NO:    5 *TRANSITION MOMENT:  -1.4212430     *ENERGY(eV):   21.787150    
@ STATE NO:    6 *TRANSITION MOMENT:  1.56166059E-14 *ENERGY(eV):   26.541156    
@ STATE NO:    7 *TRANSITION MOMENT: -1.22299760E-15 *ENERGY(eV):   28.553938    
@ STATE NO:    8 *TRANSITION MOMENT: -2.80276541E-14 *ENERGY(eV):   28.903406    
@ STATE NO:    9 *TRANSITION MOMENT:  2.86748369E-16 *ENERGY(eV):   29.131898    
@ STATE NO:   10 *TRANSITION MOMENT: -2.43277724E-15 *ENERGY(eV):   32.201842    
@ STATE NO:   11 *TRANSITION MOMENT:  8.89552342E-16 *ENERGY(eV):   33.283091    
@ STATE NO:   12 *TRANSITION MOMENT: -4.30716364E-02 *ENERGY(eV):   35.111114    
@ STATE NO:   13 *TRANSITION MOMENT:  7.62174655E-02 *ENERGY(eV):   36.021345    
@ STATE NO:   14 *TRANSITION MOMENT: -2.41805779E-15 *ENERGY(eV):   36.633445    
@ STATE NO:   15 *TRANSITION MOMENT: -1.95898969E-15 *ENERGY(eV):   36.842528    

@ Singlet transition operator label: ZDIPLEN 
@ STATE NO:    1 *TRANSITION MOMENT:  9.39811073E-02 *ENERGY(eV):   11.669705    
@ STATE NO:    2 *TRANSITION MOMENT:  3.13947187E-15 *ENERGY(eV):   14.511443    
@ STATE NO:    3 *TRANSITION MOMENT:  2.34894647E-16 *ENERGY(eV):   15.452328    
@ STATE NO:    4 *TRANSITION MOMENT: -1.95236826E-15 *ENERGY(eV):   18.342384    
@ STATE NO:    5 *TRANSITION MOMENT:  3.48267231E-16 *ENERGY(eV):   21.787150    
@ STATE NO:    6 *TRANSITION MOMENT:  2.58977102E-17 *ENERGY(eV):   26.541156    
@ STATE NO:    7 *TRANSITION MOMENT: -1.08019576E-02 *ENERGY(eV):   28.553938    
@ STATE NO:    8 *TRANSITION MOMENT:  2.63147866E-16 *ENERGY(eV):   28.903406    
@ STATE NO:    9 *TRANSITION MOMENT: -5.15090029E-16 *ENERGY(eV):   29.131898    
@ STATE NO:   10 *TRANSITION MOMENT: -3.86305534E-17 *ENERGY(eV):   32.201842    
@ STATE NO:   11 *TRANSITION MOMENT:  2.49201667E-16 *ENERGY(eV):   33.283091    
@ STATE NO:   12 *TRANSITION MOMENT: -3.43734345E-16 *ENERGY(eV):   35.111114    
@ STATE NO:   13 *TRANSITION MOMENT: -1.96927256E-16 *ENERGY(eV):   36.021345    
@ STATE NO:   14 *TRANSITION MOMENT:  5.02697413E-17 *ENERGY(eV):   36.633445    
@ STATE NO:   15 *TRANSITION MOMENT: -1.74785053E-02 *ENERGY(eV):   36.842528    


 **************************************************************************************
 *** @ Excit. operator sym 1 & ref. state sym 1 => excited state symmetry 1  ( A  ) ***
 **************************************************************************************



 @ Excited state no:    1 in symmetry 1  ( A  ) - singlet excitation
 -------------------------------------------------------------------

@ Excitation energy :  0.42885379     au
@                       11.669705     eV;   94122.526     cm-1;   1125.9554     kJ / mol

@ Total energy :       -74.568641     au

@ Operator label: XDIPLEN ; Transition moment :  2.14939717E-15 au
@ Oscillator strength (LENGTH)   :  1.32084342E-30  (X-polarization)

@ Operator label: YDIPLEN ; Transition moment :  4.25760068E-15 au
@ Oscillator strength (LENGTH)   :  5.18260182E-30  (Y-polarization)

@ Operator label: ZDIPLEN ; Transition moment :  9.39811073E-02 au
@ Oscillator strength (LENGTH)   :  2.52521933E-03  (Z-polarization)
@ Total oscillator strength (LENGTH)   :  2.52521933E-03

 Eigenvector for state no.  1

      Index(conf)                         Z operator          Y operator
      ----------                      --------------      --------------
          11                            0.9745010582        0.0000000000
          44                           -0.1701895304        0.0000000000

       48 elements with absolute value ≤ 1.00D-01 are not printed.

 Printout of coefficients in interval  3.1623E-01 to  1.0000E+00
 ===============================================================

  Coefficient of CSF no.        11 is      0.97450106    9.74501058E-01
  Orbital          1   2   3   4
  Spin coupling    2   2   1  -1

 Printout of coefficients in interval  1.0000E-01 to  3.1623E-01
 ===============================================================

  Coefficient of CSF no.        44 is     -0.17018953   -1.70189530E-01
  Orbital          2   1   3   4   5
  Spin coupling    2   1  -1   1  -1

 Printout of coefficients in interval  1.0000E-01 to  1.0000E-01
 ===============================================================
   ( no coefficients )

 Norm of printed CI vector ..      0.97861679

 Magnitude of CI coefficients
 ============================
 ( Ranges are relative to norm of vector :  1.00E+00 )

  10- 1 to 10- 0         2    0.97861679E+00      0.9786167887
  10- 2 to 10- 1         8    0.21383211E-01      1.0000000000
  Number of coefficients less than 10^-11 times norm is           40


 @ Excited state no:    2 in symmetry 1  ( A  ) - singlet excitation
 -------------------------------------------------------------------

@ Excitation energy :  0.53328573     au
@                       14.511443     eV;   117042.69     cm-1;   1400.1415     kJ / mol

@ Total energy :       -74.464209     au

@ Operator label: XDIPLEN ; Transition moment :  4.15869512E-15 au
@ Oscillator strength (LENGTH)   :  6.14869383E-30  (X-polarization)

@ Operator label: YDIPLEN ; Transition moment :  5.23446506E-15 au
@ Oscillator strength (LENGTH)   :  9.74121915E-30  (Y-polarization)

@ Operator label: ZDIPLEN ; Transition moment :  3.13947187E-15 au
@ Oscillator strength (LENGTH)   :  3.50414360E-30  (Z-polarization)
@ Total oscillator strength (LENGTH)   :  1.93940566E-29

 Eigenvector for state no.  2

      Index(conf)                         Z operator          Y operator
      ----------                      --------------      --------------
          12                           -0.9778410722        0.0000000000
          32                            0.1097083788        0.0000000000
          42                           -0.1161482346        0.0000000000

       47 elements with absolute value ≤ 1.00D-01 are not printed.

 Printout of coefficients in interval  3.1623E-01 to  1.0000E+00
 ===============================================================

  Coefficient of CSF no.        12 is     -0.97784107   -9.77841072E-01
  Orbital          1   2   3   5
  Spin coupling    2   2   1  -1

 Printout of coefficients in interval  1.0000E-01 to  3.1623E-01
 ===============================================================

  Coefficient of CSF no.        32 is      0.10970838    1.09708379E-01
  Orbital          2   5   1   3
  Spin coupling    2   2   1  -1

  Coefficient of CSF no.        42 is     -0.11614823   -1.16148235E-01
  Orbital          1   2   3   4   5
  Spin coupling    2   1  -1   1  -1

 Norm of printed CI vector ..      0.98169950

 Magnitude of CI coefficients
 ============================
 ( Ranges are relative to norm of vector :  1.00E+00 )

  10- 1 to 10- 0         3    0.98169950E+00      0.9816995032
  10- 2 to 10- 1         6    0.18284880E-01      0.9999843834
  10- 3 to 10- 2         1    0.15616638E-04      1.0000000000
  Number of coefficients less than 10^-11 times norm is           40


 @ Excited state no:    3 in symmetry 1  ( A  ) - singlet excitation
 -------------------------------------------------------------------

@ Excitation energy :  0.56786263     au
@                       15.452328     eV;   124631.44     cm-1;   1490.9231     kJ / mol

@ Total energy :       -74.429632     au

@ Operator label: XDIPLEN ; Transition moment :  0.43157851     au
@ Oscillator strength (LENGTH)   :  7.05133982E-02  (X-polarization)

@ Operator label: YDIPLEN ; Transition moment : -2.59119549E-14 au
@ Oscillator strength (LENGTH)   :  2.54186447E-28  (Y-polarization)

@ Operator label: ZDIPLEN ; Transition moment :  2.34894647E-16 au
@ Oscillator strength (LENGTH)   :  2.08880679E-32  (Z-polarization)
@ Total oscillator strength (LENGTH)   :  7.05133982E-02

 Eigenvector for state no.  3

      Index(conf)                         Z operator          Y operator
      ----------                      --------------      --------------
           3                            0.1013174316        0.0000000000
          14                           -0.9577261797        0.0000000000
          18                           -0.1941895880        0.0000000000
          46                            0.1232865506        0.0000000000

       46 elements with absolute value ≤ 1.00D-01 are not printed.

 Printout of coefficients in interval  3.1623E-01 to  1.0000E+00
 ===============================================================

  Coefficient of CSF no.        14 is     -0.95772618   -9.57726180E-01
  Orbital          1   3   2   4
  Spin coupling    2   2   1  -1

 Printout of coefficients in interval  1.0000E-01 to  3.1623E-01
 ===============================================================

  Coefficient of CSF no.         3 is      0.10131743    1.01317432E-01
  Orbital          1   3   4
  Spin coupling    2   2   2

  Coefficient of CSF no.        18 is     -0.19418959   -1.94189588E-01
  Orbital          2   3   1   5
  Spin coupling    2   2   1  -1

  Coefficient of CSF no.        46 is      0.12328655    1.23286551E-01
  Orbital          3   1   2   4   5
  Spin coupling    2   1  -1   1  -1

 Norm of printed CI vector ..      0.98041383

 Magnitude of CI coefficients
 ============================
 ( Ranges are relative to norm of vector :  1.00E+00 )

  10- 1 to 10- 0         4    0.98041383E+00      0.9804138268
  10- 2 to 10- 1         9    0.19466046E-01      0.9998798729
  10- 3 to 10- 2         4    0.11996684E-03      0.9999998397
  10- 4 to 10- 3         1    0.16029354E-06      1.0000000000
  Number of coefficients less than 10^-11 times norm is           32


 @ Excited state no:    4 in symmetry 1  ( A  ) - singlet excitation
 -------------------------------------------------------------------

@ Excitation energy :  0.67407023     au
@                       18.342384     eV;   147941.31     cm-1;   1769.7711     kJ / mol

@ Total energy :       -74.323425     au

@ Operator label: XDIPLEN ; Transition moment : -3.30439465E-15 au
@ Oscillator strength (LENGTH)   :  4.90679266E-30  (X-polarization)

@ Operator label: YDIPLEN ; Transition moment : -0.39912369     au
@ Oscillator strength (LENGTH)   :  7.15861318E-02  (Y-polarization)

@ Operator label: ZDIPLEN ; Transition moment : -1.95236826E-15 au
@ Oscillator strength (LENGTH)   :  1.71292112E-30  (Z-polarization)
@ Total oscillator strength (LENGTH)   :  7.15861318E-02

 Eigenvector for state no.  4

      Index(conf)                         Z operator          Y operator
      ----------                      --------------      --------------
          15                           -0.8995838308        0.0000000000
          16                            0.1596689479        0.0000000000
          17                           -0.3757659571        0.0000000000
          26                            0.1177512204        0.0000000000

       46 elements with absolute value ≤ 1.00D-01 are not printed.

 Printout of coefficients in interval  3.1623E-01 to  1.0000E+00
 ===============================================================

  Coefficient of CSF no.        15 is     -0.89958383   -8.99583831E-01
  Orbital          1   3   2   5
  Spin coupling    2   2   1  -1

  Coefficient of CSF no.        17 is     -0.37576596   -3.75765957E-01
  Orbital          2   3   1   4
  Spin coupling    2   2   1  -1

 Printout of coefficients in interval  1.0000E-01 to  3.1623E-01
 ===============================================================

  Coefficient of CSF no.        16 is      0.15966895    1.59668948E-01
  Orbital          1   3   4   5
  Spin coupling    2   2   1  -1

  Coefficient of CSF no.        26 is      0.11775122    1.17751220E-01
  Orbital          3   4   1   2
  Spin coupling    2   2   1  -1

 Printout of coefficients in interval  1.0000E-01 to  1.0000E-01
 ===============================================================
   ( no coefficients )

 Norm of printed CI vector ..      0.98981065

 Magnitude of CI coefficients
 ============================
 ( Ranges are relative to norm of vector :  1.00E+00 )

  10- 1 to 10- 0         4    0.98981065E+00      0.9898106460
  10- 2 to 10- 1         5    0.10024157E-01      0.9998348026
  10- 3 to 10- 2         3    0.16519744E-03      1.0000000000
  Number of coefficients less than 10^-11 times norm is           38


 @ Excited state no:    5 in symmetry 1  ( A  ) - singlet excitation
 -------------------------------------------------------------------

@ Excitation energy :  0.80066305     au
@                       21.787150     eV;   175725.23     cm-1;   2102.1405     kJ / mol

@ Total energy :       -74.196832     au

@ Operator label: XDIPLEN ; Transition moment :  1.03345339E-14 au
@ Oscillator strength (LENGTH)   :  5.70085924E-29  (X-polarization)

@ Operator label: YDIPLEN ; Transition moment :  -1.4212430     au
@ Oscillator strength (LENGTH)   :   1.0781897      (Y-polarization)

@ Operator label: ZDIPLEN ; Transition moment :  3.48267231E-16 au
@ Oscillator strength (LENGTH)   :  6.47416480E-32  (Z-polarization)
@ Total oscillator strength (LENGTH)   :   1.0781897    

 Eigenvector for state no.  5

      Index(conf)                         Z operator          Y operator
      ----------                      --------------      --------------
          15                           -0.3764105466        0.0000000000
          17                            0.9090071206        0.0000000000
          19                            0.1019266201        0.0000000000
          35                            0.1107647118        0.0000000000

       46 elements with absolute value ≤ 1.00D-01 are not printed.

 Printout of coefficients in interval  3.1623E-01 to  1.0000E+00
 ===============================================================

  Coefficient of CSF no.        15 is     -0.37641055   -3.76410547E-01
  Orbital          1   3   2   5
  Spin coupling    2   2   1  -1

  Coefficient of CSF no.        17 is      0.90900712    9.09007121E-01
  Orbital          2   3   1   4
  Spin coupling    2   2   1  -1

 Printout of coefficients in interval  1.0000E-01 to  3.1623E-01
 ===============================================================

  Coefficient of CSF no.        19 is      0.10192662    1.01926620E-01
  Orbital          2   3   4   5
  Spin coupling    2   2   1  -1

  Coefficient of CSF no.        35 is      0.11076471    1.10764712E-01
  Orbital          3   5   1   2
  Spin coupling    2   2   1  -1

 Norm of printed CI vector ..      0.99063670

 Magnitude of CI coefficients
 ============================
 ( Ranges are relative to norm of vector :  1.00E+00 )

  10- 1 to 10- 0         4    0.99063670E+00      0.9906367022
  10- 2 to 10- 1         7    0.93605294E-02      0.9999972316
  10- 3 to 10- 2         1    0.27683774E-05      1.0000000000
  Number of coefficients less than 10^-11 times norm is           38


 @ Excited state no:    6 in symmetry 1  ( A  ) - singlet excitation
 -------------------------------------------------------------------

@ Excitation energy :  0.97536956     au
@                       26.541156     eV;   214068.87     cm-1;   2560.8324     kJ / mol

@ Total energy :       -74.022125     au

@ Operator label: XDIPLEN ; Transition moment :  0.27046922     au
@ Oscillator strength (LENGTH)   :  4.75678612E-02  (X-polarization)

@ Operator label: YDIPLEN ; Transition moment :  1.56166059E-14 au
@ Oscillator strength (LENGTH)   :  1.58581032E-28  (Y-polarization)

@ Operator label: ZDIPLEN ; Transition moment :  2.58977102E-17 au
@ Oscillator strength (LENGTH)   :  4.36114649E-34  (Z-polarization)
@ Total oscillator strength (LENGTH)   :  4.75678612E-02

 Eigenvector for state no.  6

      Index(conf)                         Z operator          Y operator
      ----------                      --------------      --------------
           2                           -0.7597135803        0.0000000000
           3                            0.1595586850        0.0000000000
           4                            0.1042778690        0.0000000000
           5                            0.4246846227        0.0000000000
          18                            0.3211009991        0.0000000000
          24                           -0.2557112315        0.0000000000
          30                           -0.1363192820        0.0000000000

       43 elements with absolute value ≤ 1.00D-01 are not printed.

 Printout of coefficients in interval  3.1623E-01 to  1.0000E+00
 ===============================================================

  Coefficient of CSF no.         2 is     -0.75971358   -7.59713580E-01
  Orbital          1   2   4
  Spin coupling    2   2   2

  Coefficient of CSF no.         5 is      0.42468462    4.24684623E-01
  Orbital          1   2   5
  Spin coupling    2   2   2

  Coefficient of CSF no.        18 is      0.32110100    3.21100999E-01
  Orbital          2   3   1   5
  Spin coupling    2   2   1  -1

 Printout of coefficients in interval  1.0000E-01 to  3.1623E-01
 ===============================================================

  Coefficient of CSF no.         3 is      0.15955869    1.59558685E-01
  Orbital          1   3   4
  Spin coupling    2   2   2

  Coefficient of CSF no.         4 is      0.10427787    1.04277869E-01
  Orbital          2   3   4
  Spin coupling    2   2   2

  Coefficient of CSF no.        24 is     -0.25571123   -2.55711231E-01
  Orbital          2   4   1   5
  Spin coupling    2   2   1  -1

  Coefficient of CSF no.        30 is     -0.13631928   -1.36319282E-01
  Orbital          1   5   2   4
  Spin coupling    2   2   1  -1

 Printout of coefficients in interval  1.0000E-01 to  1.0000E-01
 ===============================================================
   ( no coefficients )

 Norm of printed CI vector ..      0.98093163

 Magnitude of CI coefficients
 ============================
 ( Ranges are relative to norm of vector :  1.00E+00 )

  10- 1 to 10- 0         7    0.98093163E+00      0.9809316329
  10- 2 to 10- 1         9    0.19051687E-01      0.9999833194
  10- 3 to 10- 2         1    0.16665870E-04      0.9999999853
  10- 4 to 10- 3         1    0.14726938E-07      1.0000000000
  Number of coefficients less than 10^-11 times norm is           32


 @ Excited state no:    7 in symmetry 1  ( A  ) - singlet excitation
 -------------------------------------------------------------------

@ Excitation energy :   1.0493379     au
@                       28.553938     eV;   230303.06     cm-1;   2755.0363     kJ / mol

@ Total energy :       -73.948157     au

@ Operator label: XDIPLEN ; Transition moment : -2.22247519E-14 au
@ Oscillator strength (LENGTH)   :  3.45539706E-28  (X-polarization)

@ Operator label: YDIPLEN ; Transition moment : -1.22299760E-15 au
@ Oscillator strength (LENGTH)   :  1.04634603E-30  (Y-polarization)

@ Operator label: ZDIPLEN ; Transition moment : -1.08019576E-02 au
@ Oscillator strength (LENGTH)   :  8.16261007E-05  (Z-polarization)
@ Total oscillator strength (LENGTH)   :  8.16261007E-05

 Eigenvector for state no.  7

      Index(conf)                         Z operator          Y operator
      ----------                      --------------      --------------
          20                            0.7991340319        0.0000000000
          29                           -0.4663534689        0.0000000000
          31                            0.1044279140        0.0000000000
          43                           -0.2753278264        0.0000000000
          47                            0.2033640522        0.0000000000

       45 elements with absolute value ≤ 1.00D-01 are not printed.

 Printout of coefficients in interval  3.1623E-01 to  1.0000E+00
 ===============================================================

  Coefficient of CSF no.        20 is      0.79913403    7.99134032E-01
  Orbital          1   4   2   3
  Spin coupling    2   2   1  -1

  Coefficient of CSF no.        29 is     -0.46635347   -4.66353469E-01
  Orbital          1   5   2   3
  Spin coupling    2   2   1  -1

 Printout of coefficients in interval  1.0000E-01 to  3.1623E-01
 ===============================================================

  Coefficient of CSF no.        31 is      0.10442791    1.04427914E-01
  Orbital          1   5   3   4
  Spin coupling    2   2   1  -1

  Coefficient of CSF no.        43 is     -0.27532783   -2.75327826E-01
  Orbital          2   1   3   4   5
  Spin coupling    2   1   1  -1  -1

  Coefficient of CSF no.        47 is      0.20336405    2.03364052E-01
  Orbital          4   1   2   3   5
  Spin coupling    2   1   1  -1  -1

 Norm of printed CI vector ..      0.98416830

 Magnitude of CI coefficients
 ============================
 ( Ranges are relative to norm of vector :  1.00E+00 )

  10- 1 to 10- 0         5    0.98416830E+00      0.9841682977
  10- 2 to 10- 1         5    0.15831702E-01      1.0000000000
  Number of coefficients less than 10^-11 times norm is           40


 @ Excited state no:    8 in symmetry 1  ( A  ) - singlet excitation
 -------------------------------------------------------------------

@ Excitation energy :   1.0621807     au
@                       28.903406     eV;   233121.71     cm-1;   2788.7549     kJ / mol

@ Total energy :       -73.935314     au

@ Operator label: XDIPLEN ; Transition moment : -0.80358409     au
@ Oscillator strength (LENGTH)   :  0.45726692      (X-polarization)

@ Operator label: YDIPLEN ; Transition moment : -2.80276541E-14 au
@ Oscillator strength (LENGTH)   :  5.56263581E-28  (Y-polarization)

@ Operator label: ZDIPLEN ; Transition moment :  2.63147866E-16 au
@ Oscillator strength (LENGTH)   :  4.90350741E-32  (Z-polarization)
@ Total oscillator strength (LENGTH)   :  0.45726692    

 Eigenvector for state no.  8

      Index(conf)                         Z operator          Y operator
      ----------                      --------------      --------------
           2                           -0.3103765859        0.0000000000
           3                            0.1139152103        0.0000000000
           4                           -0.1937046230        0.0000000000
           6                           -0.1042524081        0.0000000000
          14                            0.1660088179        0.0000000000
          18                           -0.8785493377        0.0000000000

       44 elements with absolute value ≤ 1.00D-01 are not printed.

 Printout of coefficients in interval  3.1623E-01 to  1.0000E+00
 ===============================================================

  Coefficient of CSF no.        18 is     -0.87854934   -8.78549338E-01
  Orbital          2   3   1   5
  Spin coupling    2   2   1  -1

 Printout of coefficients in interval  1.0000E-01 to  3.1623E-01
 ===============================================================

  Coefficient of CSF no.         2 is     -0.31037659   -3.10376586E-01
  Orbital          1   2   4
  Spin coupling    2   2   2

  Coefficient of CSF no.         3 is      0.11391521    1.13915210E-01
  Orbital          1   3   4
  Spin coupling    2   2   2

  Coefficient of CSF no.         4 is     -0.19370462   -1.93704623E-01
  Orbital          2   3   4
  Spin coupling    2   2   2

  Coefficient of CSF no.         6 is     -0.10425241   -1.04252408E-01
  Orbital          1   3   5
  Spin coupling    2   2   2

  Coefficient of CSF no.        14 is      0.16600882    1.66008818E-01
  Orbital          1   3   2   4
  Spin coupling    2   2   1  -1

 Norm of printed CI vector ..      0.95710821

 Magnitude of CI coefficients
 ============================
 ( Ranges are relative to norm of vector :  1.00E+00 )

  10- 1 to 10- 0         6    0.95710821E+00      0.9571082121
  10- 2 to 10- 1        11    0.42822478E-01      0.9999306904
  10- 3 to 10- 2         1    0.69309561E-04      1.0000000000
  Number of coefficients less than 10^-11 times norm is           32


 @ Excited state no:    9 in symmetry 1  ( A  ) - singlet excitation
 -------------------------------------------------------------------

@ Excitation energy :   1.0705776     au
@                       29.131898     eV;   234964.62     cm-1;   2810.8011     kJ / mol

@ Total energy :       -73.926917     au

@ Operator label: XDIPLEN ; Transition moment :  3.38433232E-14 au
@ Oscillator strength (LENGTH)   :  8.17472020E-28  (X-polarization)

@ Operator label: YDIPLEN ; Transition moment :  2.86748369E-16 au
@ Oscillator strength (LENGTH)   :  5.86852294E-32  (Y-polarization)

@ Operator label: ZDIPLEN ; Transition moment : -5.15090029E-16 au
@ Oscillator strength (LENGTH)   :  1.89362151E-31  (Z-polarization)
@ Total oscillator strength (LENGTH)   :  8.17720067E-28

 Eigenvector for state no.  9

      Index(conf)                         Z operator          Y operator
      ----------                      --------------      --------------
          22                           -0.1493604440        0.0000000000
          23                            0.4906106563        0.0000000000
          32                           -0.3336841543        0.0000000000
          41                           -0.7697186324        0.0000000000
          50                            0.1229943944        0.0000000000

       45 elements with absolute value ≤ 1.00D-01 are not printed.

 Printout of coefficients in interval  3.1623E-01 to  1.0000E+00
 ===============================================================

  Coefficient of CSF no.        23 is      0.49061066    4.90610656E-01
  Orbital          2   4   1   3
  Spin coupling    2   2   1  -1

  Coefficient of CSF no.        32 is     -0.33368415   -3.33684154E-01
  Orbital          2   5   1   3
  Spin coupling    2   2   1  -1

  Coefficient of CSF no.        41 is     -0.76971863   -7.69718632E-01
  Orbital          1   2   3   4   5
  Spin coupling    2   1   1  -1  -1

 Printout of coefficients in interval  1.0000E-01 to  3.1623E-01
 ===============================================================

  Coefficient of CSF no.        22 is     -0.14936044   -1.49360444E-01
  Orbital          1   4   3   5
  Spin coupling    2   2   1  -1

  Coefficient of CSF no.        50 is      0.12299439    1.22994394E-01
  Orbital          5   1   2   3   4
  Spin coupling    2   1  -1   1  -1

 Norm of printed CI vector ..      0.98194687

 Magnitude of CI coefficients
 ============================
 ( Ranges are relative to norm of vector :  1.00E+00 )

  10- 1 to 10- 0         5    0.98194687E+00      0.9819468672
  10- 2 to 10- 1         3    0.17954254E-01      0.9999011209
  10- 3 to 10- 2         2    0.98879099E-04      1.0000000000
  Number of coefficients less than 10^-11 times norm is           40


 @ Excited state no:   10 in symmetry 1  ( A  ) - singlet excitation
 -------------------------------------------------------------------

@ Excitation energy :   1.1833960     au
@                       32.201842     eV;   259725.39     cm-1;   3107.0056     kJ / mol

@ Total energy :       -73.814099     au

@ Operator label: XDIPLEN ; Transition moment : -0.10275756     au
@ Oscillator strength (LENGTH)   :  8.33041101E-03  (X-polarization)

@ Operator label: YDIPLEN ; Transition moment : -2.43277724E-15 au
@ Oscillator strength (LENGTH)   :  4.66921114E-30  (Y-polarization)

@ Operator label: ZDIPLEN ; Transition moment : -3.86305534E-17 au
@ Oscillator strength (LENGTH)   :  1.17733671E-33  (Z-polarization)
@ Total oscillator strength (LENGTH)   :  8.33041101E-03

 Eigenvector for state no. 10

      Index(conf)                         Z operator          Y operator
      ----------                      --------------      --------------
           2                           -0.1794369091        0.0000000000
           3                           -0.6873964971        0.0000000000
           4                            0.2126486087        0.0000000000
           6                            0.4507984644        0.0000000000
           7                           -0.1588842560        0.0000000000
          18                           -0.1203879381        0.0000000000
          27                           -0.1446163865        0.0000000000
          45                           -0.4110112544        0.0000000000

       42 elements with absolute value ≤ 1.00D-01 are not printed.

 Printout of coefficients in interval  3.1623E-01 to  1.0000E+00
 ===============================================================

  Coefficient of CSF no.         3 is     -0.68739650   -6.87396497E-01
  Orbital          1   3   4
  Spin coupling    2   2   2

  Coefficient of CSF no.         6 is      0.45079846    4.50798464E-01
  Orbital          1   3   5
  Spin coupling    2   2   2

  Coefficient of CSF no.        45 is     -0.41101125   -4.11011254E-01
  Orbital          3   1   2   4   5
  Spin coupling    2   1   1  -1  -1

 Printout of coefficients in interval  1.0000E-01 to  3.1623E-01
 ===============================================================

  Coefficient of CSF no.         2 is     -0.17943691   -1.79436909E-01
  Orbital          1   2   4
  Spin coupling    2   2   2

  Coefficient of CSF no.         4 is      0.21264861    2.12648609E-01
  Orbital          2   3   4
  Spin coupling    2   2   2

  Coefficient of CSF no.         7 is     -0.15888426   -1.58884256E-01
  Orbital          2   3   5
  Spin coupling    2   2   2

  Coefficient of CSF no.        18 is     -0.12038794   -1.20387938E-01
  Orbital          2   3   1   5
  Spin coupling    2   2   1  -1

  Coefficient of CSF no.        27 is     -0.14461639   -1.44616386E-01
  Orbital          3   4   1   5
  Spin coupling    2   2   1  -1

 Norm of printed CI vector ..      0.98273185

 Magnitude of CI coefficients
 ============================
 ( Ranges are relative to norm of vector :  1.00E+00 )

  10- 1 to 10- 0         8    0.98273185E+00      0.9827318478
  10- 2 to 10- 1         7    0.17111942E-01      0.9998437896
  10- 3 to 10- 2         3    0.15621036E-03      1.0000000000
  Number of coefficients less than 10^-11 times norm is           32


 @ Excited state no:   11 in symmetry 1  ( A  ) - singlet excitation
 -------------------------------------------------------------------

@ Excitation energy :   1.2231311     au
@                       33.283091     eV;   268446.25     cm-1;   3211.3302     kJ / mol

@ Total energy :       -73.774364     au

@ Operator label: XDIPLEN ; Transition moment : -3.13513903E-16 au
@ Oscillator strength (LENGTH)   :  8.01484935E-32  (X-polarization)

@ Operator label: YDIPLEN ; Transition moment :  8.89552342E-16 au
@ Oscillator strength (LENGTH)   :  6.45245182E-31  (Y-polarization)

@ Operator label: ZDIPLEN ; Transition moment :  2.49201667E-16 au
@ Oscillator strength (LENGTH)   :  5.06388276E-32  (Z-polarization)
@ Total oscillator strength (LENGTH)   :  7.76032503E-31

 Eigenvector for state no. 11

      Index(conf)                         Z operator          Y operator
      ----------                      --------------      --------------
          22                           -0.1103660748        0.0000000000
          23                           -0.7647797042        0.0000000000
          32                            0.2118275690        0.0000000000
          41                           -0.5426029908        0.0000000000
          49                            0.1423421292        0.0000000000
          50                            0.1571132281        0.0000000000

       44 elements with absolute value ≤ 1.00D-01 are not printed.

 Printout of coefficients in interval  3.1623E-01 to  1.0000E+00
 ===============================================================

  Coefficient of CSF no.        23 is     -0.76477970   -7.64779704E-01
  Orbital          2   4   1   3
  Spin coupling    2   2   1  -1

  Coefficient of CSF no.        41 is     -0.54260299   -5.42602991E-01
  Orbital          1   2   3   4   5
  Spin coupling    2   1   1  -1  -1

 Printout of coefficients in interval  1.0000E-01 to  3.1623E-01
 ===============================================================

  Coefficient of CSF no.        22 is     -0.11036607   -1.10366075E-01
  Orbital          1   4   3   5
  Spin coupling    2   2   1  -1

  Coefficient of CSF no.        32 is      0.21182757    2.11827569E-01
  Orbital          2   5   1   3
  Spin coupling    2   2   1  -1

  Coefficient of CSF no.        49 is      0.14234213    1.42342129E-01
  Orbital          5   1   2   3   4
[...]
          14                           -0.1069852307        0.0000000000
          24                            0.1070910176        0.0000000000
          27                            0.4963385874        0.0000000000
          37                           -0.7556170231        0.0000000000
          45                            0.1688829214        0.0000000000

       44 elements with absolute value ≤ 1.00D-01 are not printed.

 Printout of coefficients in interval  3.1623E-01 to  1.0000E+00
 ===============================================================

  Coefficient of CSF no.        27 is      0.49633859    4.96338587E-01
  Orbital          3   4   1   5
  Spin coupling    2   2   1  -1

  Coefficient of CSF no.        37 is     -0.75561702   -7.55617023E-01
  Orbital          3   5   2   4
  Spin coupling    2   2   1  -1

 Printout of coefficients in interval  1.0000E-01 to  3.1623E-01
 ===============================================================

  Coefficient of CSF no.        10 is      0.30755069    3.07550689E-01
  Orbital          3   4   5
  Spin coupling    2   2   2

  Coefficient of CSF no.        14 is     -0.10698523   -1.06985231E-01
  Orbital          1   3   2   4
  Spin coupling    2   2   1  -1

  Coefficient of CSF no.        24 is      0.10709102    1.07091018E-01
  Orbital          2   4   1   5
  Spin coupling    2   2   1  -1

  Coefficient of CSF no.        45 is      0.16888292    1.68882921E-01
  Orbital          3   1   2   4   5
  Spin coupling    2   1   1  -1  -1

 Norm of printed CI vector ..      0.96333227

 Magnitude of CI coefficients
 ============================
 ( Ranges are relative to norm of vector :  1.00E+00 )

  10- 1 to 10- 0         6    0.96333227E+00      0.9633322724
  10- 2 to 10- 1         9    0.36546675E-01      0.9998789477
  10- 3 to 10- 2         3    0.12105226E-03      1.0000000000
  Number of coefficients less than 10^-11 times norm is           32


 @ Excited state no:   44 in symmetry 1  ( A  ) - singlet excitation
 -------------------------------------------------------------------

@ Excitation energy :   2.9584341     au
@                       80.503087     eV;   649301.22     cm-1;   7767.3675     kJ / mol

@ Total energy :       -72.039061     au

@ Operator label: XDIPLEN ; Transition moment : -3.63982220E-16 au
@ Oscillator strength (LENGTH)   :  2.61294927E-31  (X-polarization)

@ Operator label: YDIPLEN ; Transition moment :  2.92224090E-05 au
@ Oscillator strength (LENGTH)   :  1.68423492E-09  (Y-polarization)

@ Operator label: ZDIPLEN ; Transition moment :  3.39529800E-17 au
@ Oscillator strength (LENGTH)   :  2.27366477E-33  (Z-polarization)
@ Total oscillator strength (LENGTH)   :  1.68423492E-09

 Eigenvector for state no. 44

      Index(conf)                         Z operator          Y operator
      ----------                      --------------      --------------
          21                            0.3050281620        0.0000000000
          33                           -0.1246602569        0.0000000000
          38                            0.9395728065        0.0000000000

       47 elements with absolute value ≤ 1.00D-01 are not printed.

 Printout of coefficients in interval  3.1623E-01 to  1.0000E+00
 ===============================================================

  Coefficient of CSF no.        38 is      0.93957281    9.39572806E-01
  Orbital          4   5   1   2
  Spin coupling    2   2   1  -1

 Printout of coefficients in interval  1.0000E-01 to  3.1623E-01
 ===============================================================

  Coefficient of CSF no.        21 is      0.30502816    3.05028162E-01
  Orbital          1   4   2   5
  Spin coupling    2   2   1  -1

  Coefficient of CSF no.        33 is     -0.12466026   -1.24660257E-01
  Orbital          2   5   1   4
  Spin coupling    2   2   1  -1

 Norm of printed CI vector ..      0.99137942

 Magnitude of CI coefficients
 ============================
 ( Ranges are relative to norm of vector :  1.00E+00 )

  10- 1 to 10- 0         3    0.99137942E+00      0.9913794180
  10- 2 to 10- 1         4    0.84816640E-02      0.9998610820
  10- 3 to 10- 2         5    0.13891803E-03      1.0000000000
  Number of coefficients less than 10^-11 times norm is           38


 @ Excited state no:   45 in symmetry 1  ( A  ) - singlet excitation
 -------------------------------------------------------------------

@ Excitation energy :   2.9632015     au
@                       80.632815     eV;   650347.56     cm-1;   7779.8844     kJ / mol

@ Total energy :       -72.034293     au

@ Operator label: XDIPLEN ; Transition moment : -1.75046792E-03 au
@ Oscillator strength (LENGTH)   :  6.05310544E-06  (X-polarization)

@ Operator label: YDIPLEN ; Transition moment : -3.49087479E-17 au
@ Oscillator strength (LENGTH)   :  2.40734576E-33  (Y-polarization)

@ Operator label: ZDIPLEN ; Transition moment : -3.92883150E-18 au
@ Oscillator strength (LENGTH)   :  3.04927600E-35  (Z-polarization)
@ Total oscillator strength (LENGTH)   :  6.05310544E-06

 Eigenvector for state no. 45

      Index(conf)                         Z operator          Y operator
      ----------                      --------------      --------------
           8                            0.6859053625        0.0000000000
           9                           -0.6483860677        0.0000000000
          24                            0.2439034417        0.0000000000
          30                            0.1977978940        0.0000000000

       46 elements with absolute value ≤ 1.00D-01 are not printed.

 Printout of coefficients in interval  3.1623E-01 to  1.0000E+00
 ===============================================================

  Coefficient of CSF no.         8 is      0.68590536    6.85905363E-01
  Orbital          1   4   5
  Spin coupling    2   2   2

  Coefficient of CSF no.         9 is     -0.64838607   -6.48386068E-01
  Orbital          2   4   5
  Spin coupling    2   2   2

 Printout of coefficients in interval  1.0000E-01 to  3.1623E-01
 ===============================================================

  Coefficient of CSF no.        24 is      0.24390344    2.43903442E-01
  Orbital          2   4   1   5
  Spin coupling    2   2   1  -1

  Coefficient of CSF no.        30 is      0.19779789    1.97797894E-01
  Orbital          1   5   2   4
  Spin coupling    2   2   1  -1

 Norm of printed CI vector ..      0.98948355

 Magnitude of CI coefficients
 ============================
 ( Ranges are relative to norm of vector :  1.00E+00 )

  10- 1 to 10- 0         4    0.98948355E+00      0.9894835549
  10- 2 to 10- 1        10    0.10424935E-01      0.9999084904
  10- 3 to 10- 2         3    0.90708928E-04      0.9999991993
  10- 4 to 10- 3         1    0.80071375E-06      1.0000000000
  Number of coefficients less than 10^-11 times norm is           32

@ Singlet transition operator label: XDIPLEN 
@ STATE NO:   46 *TRANSITION MOMENT:  5.05286608E-04 *ENERGY(eV):   82.709241    
@ STATE NO:   47 *TRANSITION MOMENT: -1.25840896E-16 *ENERGY(eV):   83.312965    
@ STATE NO:   48 *TRANSITION MOMENT: -2.65378693E-16 *ENERGY(eV):   83.644536    
@ STATE NO:   49 *TRANSITION MOMENT: -1.73332203E-03 *ENERGY(eV):   88.676012    

@ Singlet transition operator label: YDIPLEN 
@ STATE NO:   46 *TRANSITION MOMENT: -1.22034088E-17 *ENERGY(eV):   82.709241    
@ STATE NO:   47 *TRANSITION MOMENT: -4.33985403E-16 *ENERGY(eV):   83.312965    
@ STATE NO:   48 *TRANSITION MOMENT: -3.90233654E-16 *ENERGY(eV):   83.644536    
@ STATE NO:   49 *TRANSITION MOMENT:  9.94794230E-17 *ENERGY(eV):   88.676012    

@ Singlet transition operator label: ZDIPLEN 
@ STATE NO:   46 *TRANSITION MOMENT:  9.55003207E-18 *ENERGY(eV):   82.709241    
@ STATE NO:   47 *TRANSITION MOMENT:  9.93343668E-17 *ENERGY(eV):   83.312965    
@ STATE NO:   48 *TRANSITION MOMENT: -7.87391384E-04 *ENERGY(eV):   83.644536    
@ STATE NO:   49 *TRANSITION MOMENT:  6.16381305E-18 *ENERGY(eV):   88.676012    


 **************************************************************************************
 *** @ Excit. operator sym 1 & ref. state sym 1 => excited state symmetry 1  ( A  ) ***
 **************************************************************************************



 @ Excited state no:   46 in symmetry 1  ( A  ) - singlet excitation
 -------------------------------------------------------------------

@ Excitation energy :   3.0395088     au
@                       82.709241     eV;   667095.06     cm-1;   7980.2290     kJ / mol

@ Total energy :       -71.957986     au

@ Operator label: XDIPLEN ; Transition moment :  5.05286608E-04 au
@ Oscillator strength (LENGTH)   :  5.17353887E-07  (X-polarization)

@ Operator label: YDIPLEN ; Transition moment : -1.22034088E-17 au
@ Oscillator strength (LENGTH)   :  3.01768885E-34  (Y-polarization)

@ Operator label: ZDIPLEN ; Transition moment :  9.55003207E-18 au
@ Oscillator strength (LENGTH)   :  1.84808440E-34  (Z-polarization)
@ Total oscillator strength (LENGTH)   :  5.17353887E-07

 Eigenvector for state no. 46

      Index(conf)                         Z operator          Y operator
      ----------                      --------------      --------------
           2                            0.1097254388        0.0000000000
           8                            0.6454781320        0.0000000000
           9                            0.6076217488        0.0000000000
          10                           -0.3189676734        0.0000000000
          24                           -0.2482707856        0.0000000000
          30                            0.1500781622        0.0000000000

       44 elements with absolute value ≤ 1.00D-01 are not printed.

 Printout of coefficients in interval  3.1623E-01 to  1.0000E+00
 ===============================================================

  Coefficient of CSF no.         8 is      0.64547813    6.45478132E-01
  Orbital          1   4   5
  Spin coupling    2   2   2

  Coefficient of CSF no.         9 is      0.60762175    6.07621749E-01
  Orbital          2   4   5
  Spin coupling    2   2   2

  Coefficient of CSF no.        10 is     -0.31896767   -3.18967673E-01
  Orbital          3   4   5
  Spin coupling    2   2   2

 Printout of coefficients in interval  1.0000E-01 to  3.1623E-01
 ===============================================================

  Coefficient of CSF no.         2 is      0.10972544    1.09725439E-01
  Orbital          1   2   4
  Spin coupling    2   2   2

  Coefficient of CSF no.        24 is     -0.24827079   -2.48270786E-01
  Orbital          2   4   1   5
  Spin coupling    2   2   1  -1

  Coefficient of CSF no.        30 is      0.15007816    1.50078162E-01
  Orbital          1   5   2   4
  Spin coupling    2   2   1  -1

 Norm of printed CI vector ..      0.98378809

 Magnitude of CI coefficients
 ============================
 ( Ranges are relative to norm of vector :  1.00E+00 )

  10- 1 to 10- 0         6    0.98378809E+00      0.9837880949
  10- 2 to 10- 1         6    0.16075229E-01      0.9998633237
  10- 3 to 10- 2         4    0.13613214E-03      0.9999994559
  10- 4 to 10- 3         2    0.54414907E-06      1.0000000000
  Number of coefficients less than 10^-11 times norm is           32


 @ Excited state no:   47 in symmetry 1  ( A  ) - singlet excitation
 -------------------------------------------------------------------

@ Excitation energy :   3.0616952     au
@                       83.312965     eV;   671964.43     cm-1;   8038.4796     kJ / mol

@ Total energy :       -71.935800     au

@ Operator label: XDIPLEN ; Transition moment : -1.25840896E-16 au
@ Oscillator strength (LENGTH)   :  3.23231965E-32  (X-polarization)

@ Operator label: YDIPLEN ; Transition moment : -4.33985403E-16 au
@ Oscillator strength (LENGTH)   :  3.84433250E-31  (Y-polarization)

@ Operator label: ZDIPLEN ; Transition moment :  9.93343668E-17 au
@ Oscillator strength (LENGTH)   :  2.01404771E-32  (Z-polarization)
@ Total oscillator strength (LENGTH)   :  4.36896923E-31

 Eigenvector for state no. 47

      Index(conf)                         Z operator          Y operator
      ----------                      --------------      --------------
          22                            0.3059336884        0.0000000000
          39                            0.9240333969        0.0000000000
          49                           -0.1655135919        0.0000000000
          50                           -0.1096211428        0.0000000000

       46 elements with absolute value ≤ 1.00D-01 are not printed.

 Printout of coefficients in interval  3.1623E-01 to  1.0000E+00
 ===============================================================

  Coefficient of CSF no.        39 is      0.92403340    9.24033397E-01
  Orbital          4   5   1   3
  Spin coupling    2   2   1  -1

 Printout of coefficients in interval  1.0000E-01 to  3.1623E-01
 ===============================================================

  Coefficient of CSF no.        22 is      0.30593369    3.05933688E-01
  Orbital          1   4   3   5
  Spin coupling    2   2   1  -1

  Coefficient of CSF no.        49 is     -0.16551359   -1.65513592E-01
  Orbital          5   1   2   3   4
  Spin coupling    2   1   1  -1  -1

  Coefficient of CSF no.        50 is     -0.10962114   -1.09621143E-01
  Orbital          5   1   2   3   4
  Spin coupling    2   1  -1   1  -1

 Norm of printed CI vector ..      0.98684468

 Magnitude of CI coefficients
 ============================
 ( Ranges are relative to norm of vector :  1.00E+00 )

  10- 1 to 10- 0         4    0.98684468E+00      0.9868446843
  10- 2 to 10- 1         5    0.13154070E-01      0.9999987540
  10- 3 to 10- 2         1    0.12460415E-05      1.0000000000
  Number of coefficients less than 10^-11 times norm is           40


 @ Excited state no:   48 in symmetry 1  ( A  ) - singlet excitation
 -------------------------------------------------------------------

@ Excitation energy :   3.0738802     au
@                       83.644536     eV;   674638.73     cm-1;   8070.4713     kJ / mol

@ Total energy :       -71.923615     au

@ Operator label: XDIPLEN ; Transition moment : -2.65378693E-16 au
@ Oscillator strength (LENGTH)   :  1.44320421E-31  (X-polarization)

@ Operator label: YDIPLEN ; Transition moment : -3.90233654E-16 au
@ Oscillator strength (LENGTH)   :  3.12065045E-31  (Y-polarization)

@ Operator label: ZDIPLEN ; Transition moment : -7.87391384E-04 au
@ Oscillator strength (LENGTH)   :  1.27050682E-06  (Z-polarization)
@ Total oscillator strength (LENGTH)   :  1.27050682E-06

 Eigenvector for state no. 48

      Index(conf)                         Z operator          Y operator
      ----------                      --------------      --------------
          20                            0.1339178116        0.0000000000
          40                            0.9199185729        0.0000000000
          47                           -0.2920176811        0.0000000000
          48                            0.1821484581        0.0000000000

       46 elements with absolute value ≤ 1.00D-01 are not printed.

 Printout of coefficients in interval  3.1623E-01 to  1.0000E+00
 ===============================================================

  Coefficient of CSF no.        40 is      0.91991857    9.19918573E-01
  Orbital          4   5   2   3
  Spin coupling    2   2   1  -1

 Printout of coefficients in interval  1.0000E-01 to  3.1623E-01
 ===============================================================

  Coefficient of CSF no.        20 is      0.13391781    1.33917812E-01
  Orbital          1   4   2   3
  Spin coupling    2   2   1  -1

  Coefficient of CSF no.        47 is     -0.29201768   -2.92017681E-01
  Orbital          4   1   2   3   5
  Spin coupling    2   1   1  -1  -1

  Coefficient of CSF no.        48 is      0.18214846    1.82148458E-01
  Orbital          4   1   2   3   5
  Spin coupling    2   1  -1   1  -1

 Norm of printed CI vector ..      0.98263655

 Magnitude of CI coefficients
 ============================
 ( Ranges are relative to norm of vector :  1.00E+00 )

  10- 1 to 10- 0         4    0.98263655E+00      0.9826365480
  10- 2 to 10- 1         6    0.17363452E-01      1.0000000000
  Number of coefficients less than 10^-11 times norm is           40


 @ Excited state no:   49 in symmetry 1  ( A  ) - singlet excitation
 -------------------------------------------------------------------

@ Excitation energy :   3.2587836     au
@                       88.676012     eV;   715220.32     cm-1;   8555.9350     kJ / mol

@ Total energy :       -71.738711     au

@ Operator label: XDIPLEN ; Transition moment : -1.73332203E-03 au
@ Oscillator strength (LENGTH)   :  6.52713768E-06  (X-polarization)

@ Operator label: YDIPLEN ; Transition moment :  9.94794230E-17 au
@ Oscillator strength (LENGTH)   :  2.14996196E-32  (Y-polarization)

@ Operator label: ZDIPLEN ; Transition moment :  6.16381305E-18 au
@ Oscillator strength (LENGTH)   :  8.25397551E-35  (Z-polarization)
@ Total oscillator strength (LENGTH)   :  6.52713768E-06

 Eigenvector for state no. 49

      Index(conf)                         Z operator          Y operator
      ----------                      --------------      --------------
           3                           -0.1255549206        0.0000000000
           8                           -0.2069135672        0.0000000000
           9                           -0.2415733304        0.0000000000
          10                           -0.8612237850        0.0000000000
          27                            0.3099658587        0.0000000000
          37                           -0.1228659347        0.0000000000

       44 elements with absolute value ≤ 1.00D-01 are not printed.

 Printout of coefficients in interval  3.1623E-01 to  1.0000E+00
 ===============================================================

  Coefficient of CSF no.        10 is     -0.86122379   -8.61223785E-01
  Orbital          3   4   5
  Spin coupling    2   2   2

 Printout of coefficients in interval  1.0000E-01 to  3.1623E-01
 ===============================================================

  Coefficient of CSF no.         3 is     -0.12555492   -1.25554921E-01
  Orbital          1   3   4
  Spin coupling    2   2   2

  Coefficient of CSF no.         8 is     -0.20691357   -2.06913567E-01
  Orbital          1   4   5
  Spin coupling    2   2   2

  Coefficient of CSF no.         9 is     -0.24157333   -2.41573330E-01
  Orbital          2   4   5
  Spin coupling    2   2   2

  Coefficient of CSF no.        27 is      0.30996586    3.09965859E-01
  Orbital          3   4   1   5
  Spin coupling    2   2   1  -1

  Coefficient of CSF no.        37 is     -0.12286593   -1.22865935E-01
  Orbital          3   5   2   4
  Spin coupling    2   2   1  -1

 Norm of printed CI vector ..      0.96981622

 Magnitude of CI coefficients
 ============================
 ( Ranges are relative to norm of vector :  1.00E+00 )

  10- 1 to 10- 0         6    0.96981622E+00      0.9698162157
  10- 2 to 10- 1        12    0.30183784E-01      1.0000000000
  Number of coefficients less than 10^-11 times norm is           32


 Time used in polarization propagator calculation is      0.05 CPU seconds for symmetry 1

  Total CPU  time used in RESPONSE:   0.07 seconds
  Total wall time used in RESPONSE:   0.27 seconds


                   .-------------------------------------------.
                   | End of Dynamic Property Section (RESPONS) |
                   `-------------------------------------------'

  Total CPU  time used in DALTON:   0.20 seconds
  Total wall time used in DALTON:   1.17 seconds

 NOTE:    1 warnings have been issued.
 Check output, result, and error files for "WARNING".

 
     Date and time (Linux)  : Tue Jul  7 15:15:50 2026
     Host name              : n-62-31-23                              
