

     ************************************************************************
     *************** Dalton - An Electronic Structure Program ***************
     ************************************************************************

    This is output from DALTON release Dalton2024.0-dev (2024)
         ( Web site: http://daltonprogram.org )

   ----------------------------------------------------------------------------

    NOTE:
     
    Dalton is an experimental code for the evaluation of molecular
    properties using (MC)SCF, DFT, CI, and CC wave functions.
    The authors accept no responsibility for the performance of
    the code or for the correctness of the results.
     
    The code (in whole or part) is provided under a licence and
    is not to be reproduced for further distribution without
    the written permission of the authors or their representatives.
     
    See the home page "http://daltonprogram.org" for further information.
     
    If results obtained with this code are published,
    the appropriate citations would be both of:
     
       K. Aidas, C. Angeli, K. L. Bak, V. Bakken,
       R. Bast, L. Boman, O. Christiansen, R. Cimiraglia,
       S. Coriani, P. Dahle, E. K. Dalskov, U. Ekstroem,
       T. Enevoldsen, J. J. Eriksen, P. Ettenhuber, B. Fernandez,
       L. Ferrighi, H. Fliegl, L. Frediani, K. Hald, A. Halkier,
       C. Haettig, H. Heiberg, T. Helgaker, A. C. Hennum,
       H. Hettema, E. Hjertenaes, S. Hoest, I.-M. Hoeyvik,
       M. F. Iozzi, B. Jansik, H. J. Aa. Jensen, D. Jonsson,
       P. Joergensen, J. Kauczor, S. Kirpekar,
       T. Kjaergaard, W. Klopper, S. Knecht, R. Kobayashi, H. Koch,
       J. Kongsted, A. Krapp, K. Kristensen, A. Ligabue,
       O. B. Lutnaes, J. I. Melo, K. V. Mikkelsen, R. H. Myhre,
       C. Neiss, C. B. Nielsen, P. Norman, J. Olsen,
       J. M. H. Olsen, A. Osted, M. J. Packer, F. Pawlowski,
       T. B. Pedersen, P. F. Provasi, S. Reine, Z. Rinkevicius,
       T. A. Ruden, K. Ruud, V. Rybkin, P. Salek, C. C. M. Samson,
       A. Sanchez de Meras, T. Saue, S. P. A. Sauer,
       B. Schimmelpfennig, K. Sneskov, A. H. Steindal,
       K. O. Sylvester-Hvid, P. R. Taylor, A. M. Teale,
       E. I. Tellgren, D. P. Tew, A. J. Thorvaldsen, L. Thoegersen,
       O. Vahtras, M. A. Watson, D. J. D. Wilson, M. Ziolkowski
       and H. Agren,
       "The Dalton quantum chemistry program system",
       WIREs Comput. Mol. Sci. 2014, 4:269-284 (doi: 10.1002/wcms.1172)
     
    and
     
       Dalton, a molecular electronic structure program,
       Release Dalton2024.0-dev (2024), see http://daltonprogram.org
   ----------------------------------------------------------------------------

    Authors in alphabetical order (Major contribution(s) in parenthesis):

  Kestutis Aidas,              Vilnius University,        Lithuania   (QM/MM)
  Celestino Angeli,            University of Ferrara,     Italy       (NEVPT2)
  Juan J. Aucar,               Northeast National UniversiArgentina   (LRESC, Relativistic Effects on EFG)
  Keld L. Bak,                 UNI-C,                     Denmark     (AOSOPPA, non-adiabatic coupling, magnetic properties)
  Vebjoern Bakken,             University of Oslo,        Norway      (DALTON; geometry optimizer, symmetry detection)
  Radovan Bast,                UiT The Arctic U. of NorwayNorway      (DALTON installation and execution frameworks)
  Pablo Baudin,                University of Valencia,    Spain       (Cholesky excitation energies)
  Linus Boman,                 NTNU,                      Norway      (Cholesky decomposition and subsystems)
  Bruno N. Cabral Tenorio,     Technical Univ. of Denmark,Denmark     (Lanczos-based CC methods)
  Ove Christiansen,            Aarhus University,         Denmark     (CC module)
  Renzo Cimiraglia,            University of Ferrara,     Italy       (NEVPT2)
  Sonia Coriani,               Technical Univ. of Denmark,Denmark     (CC and RESPONS modules)
  Janusz Cukras,               University of Warsaw,      Poland      (MChD in RESPONS)
  Paal Dahle,                  University of Oslo,        Norway      (Parallelization)
  Erik K. Dalskov,             UNI-C,                     Denmark     (SOPPA)
  Thomas Enevoldsen,           Univ. of Southern Denmark, Denmark     (SOPPA)
  Janus J. Eriksen,            Aarhus University,         Denmark     (Polarizable embedding, TDA)
  Rasmus Faber,                Technical Univ. of Denmark,Denmark     (Vib.avg. NMR w. SOPPA, parallel AO-SOPPA, CVS-CC and EOMCC)
  Tobias Fahleson,             KTH Stockholm,             Sweden      (Damped cubic response)
  Berta Fernandez,             U. of Santiago de CompostelSpain       (Doublet spin, ESR in RESPONS)
  Lara Ferrighi,               Aarhus University,         Denmark     (PCM Cubic response)
  Heike Fliegl,                University of Oslo,        Norway      (CCSD(R12))
  Luca Frediani,               UiT The Arctic U. of NorwayNorway      (PCM)
  Emmanuel Fromager,           Univ. Strasbourg,          France      (MC-srDFT)
  Bin Gao,                     UiT The Arctic U. of NorwayNorway      (Gen1Int library)
  Andre S. P. Gomes,           CNRS/Universite de Lille,  France      (Frozen density embedding)
  Christof Haettig,            Ruhr-University Bochum,    Germany     (CC module)
  Kasper Hald,                 Aarhus University,         Denmark     (CC module)
  Asger Halkier,               Aarhus University,         Denmark     (CC module)
  Frederik Beyer Hansen,       University of Copenhagen,  Denmark     (Parallel AO-SOPPA)
  Erik D. Hedegaard,           Univ. of Southern Denmark, Denmark     (Polarizable embedding, QM/MM, and MC-srDFT)
  Hanne Heiberg,               University of Oslo,        Norway      (Geometry analysis, selected one-electron integrals)
  Trygve Helgaker,             University of Oslo,        Norway      (DALTON; ABACUS, ERI, DFT modules, London, and much more)
  Alf Christian Hennum,        University of Oslo,        Norway      (Parity violation)
  Hinne Hettema,               University of Auckland,    New Zealand (Quadratic response in RESPONS; SIRIUS supersymmetry)
  Andreas E. Hillers-Bendtsen, University of Copenhagen,  Denmark     (MP3)
  Eirik Hjertenaes,            NTNU,                      Norway      (Cholesky decomposition)
  Nicolai Machholdt Hoeyer,    Aarhus University,         Denmark     (MP3)
  Pi A. B. Haase,              University of Copenhagen,  Denmark     (Triplet AO-SOPPA)
  Maria Francesca Iozzi,       University of Oslo,        Norway      (RPA)
  Christoph Jacob,             TU Braunschweig            Germany     (Frozen density embedding)
  Brano Jansik,                Technical Univ. of Ostrava Czech Rep.  (DFT cubic response)
  Hans Joergen Aa. Jensen,     Univ. of Southern Denmark, Denmark     (DALTON; SIRIUS, RESPONS, ABACUS, MC-srDFT, and much more)
  Dan Jonsson,                 UiT The Arctic U. of NorwayNorway      (Cubic response in RESPONS module)
  Poul Joergensen,             Aarhus University,         Denmark     (RESPONS, ABACUS, and CC modules)
  Maciej Kaminski,             University of Warsaw,      Poland      (CPPh in RESPONS)
  Joanna Kauczor,              Linkoeping University,     Sweden      (Complex polarization propagator (CPP) module)
  Sheela Kirpekar,             Univ. of Southern Denmark, Denmark     (Mass-velocity & Darwin integrals)
  Frederik Oersted Kjeldal,    Technical Univ. of Denmark,Denmark     (MP3)
  Erik Kjellgren,              Univ. of Southern Denmark, Denmark     (MC-srDFT)
  Wim Klopper,                 KIT Karlsruhe,             Germany     (R12 code in CC, SIRIUS, and ABACUS modules)
  Stefan Knecht,               ETH Zurich,                Switzerland (Parallel CI and MCSCF, MC-srDFT)
  Rika Kobayashi,              Australian National Univ., Australia   (DIIS in CC, London in MCSCF)
  Henrik Koch,                 NTNU,                      Norway      (CC module, Cholesky decomposition)
  Jacob Kongsted,              Univ. of Southern Denmark, Denmark     (Polarizable embedding, polarizable density embedding, QM/MM)
  Andrea Ligabue,              University of Modena,      Italy       (CTOCD, AOSOPPA)
  Nanna H. List,               Univ. of Southern Denmark, Denmark     (Polarizable embedding)
  Ola B. Lutnaes,              University of Oslo,        Norway      (DFT Hessian)
  Juan I. Melo,                University of Buenos Aires,Argentina   (LRESC, Relativistic Effects on NMR Shieldings)
  Kurt V. Mikkelsen,           University of Copenhagen,  Denmark     (MC-SCRF, QM/MM, and MP3)
  Rolf H. Myhre,               NTNU,                      Norway      (Subsystems and CC3)
  Christian Neiss,             Univ. Erlangen-Nuernberg,  Germany     (CCSD(R12))
  Christian B. Nielsen,        University of Copenhagen,  Denmark     (QM/MM)
  Patrick Norman,              KTH Stockholm,             Sweden      (Cubic response and complex frequency response in RESPONS)
  Jeppe Olsen,                 Aarhus University,         Denmark     (SIRIUS CI/density modules)
  Jogvan Magnus H. Olsen,      Aarhus University,         Denmark     (Polarizable embedding and polarizable density embedding)
  Anders Osted,                Copenhagen University,     Denmark     (QM/MM)
  Martin J. Packer,            University of Sheffield,   UK          (SOPPA)
  Filip Pawlowski,             Kazimierz Wielki UniversityPoland      (CC3)
  Morten N. Pedersen,          Univ. of Southern Denmark, Denmark     (Polarizable embedding)
  Thomas B. Pedersen,          University of Oslo,        Norway      (Cholesky decomposition)
  Patricio F. Provasi,         University of Northeastern,Argentina   (Analysis of coupling constants in localized orbitals)
  Peter Reinholdt,             Univ. of Southern Denmark, Denmark     (Polarizable embedding and polarizable density embedding)
  Zilvinas Rinkevicius,        KTH Stockholm,             Sweden      (open-shell DFT, ESR)
  Elias Rudberg,               KTH Stockholm,             Sweden      (DFT grid and basis info)
  Torgeir A. Ruden,            University of Oslo,        Norway      (Numerical derivatives in ABACUS)
  Kenneth Ruud,                UiT The Arctic U. of NorwayNorway      (DALTON; ABACUS magnetic properties and much more)
  Pawel Salek,                 KTH Stockholm,             Sweden      (DALTON; DFT code)
  Claire C. M. Samson,         University of Karlsruhe    Germany     (Boys localization, r12 integrals in ERI)
  Alfredo Sanchez de Meras,    University of Valencia,    Spain       (CC module, Cholesky decomposition)
  Trond Saue,                  Paul Sabatier University,  France      (direct Fock matrix construction)
  Stephan P. A. Sauer,         University of Copenhagen,  Denmark     (SOPPA(CCSD), SOPPA prop., AOSOPPA, vibrational g-factors)
  Bernd Schimmelpfennig,       Forschungszentrum KarlsruheGermany     (AMFI module)
  Anna K. Schnack-Petersen,    University of Copenhagen,  Denmark     (RPA(D) and HRPA(D) properties in AOSOPPA)
  Kristian Sneskov,            Aarhus University,         Denmark     (Polarizable embedding, QM/MM)
  Arnfinn H. Steindal,         UiT The Arctic U. of NorwayNorway      (parallel QM/MM, polarizable embedding)
  Casper Steinmann,            Aalborg University,        Denmark     (QFIT, polarizable embedding)
  K. O. Sylvester-Hvid,        University of Copenhagen,  Denmark     (MC-SCRF)
  Peter R. Taylor,             VLSCI/Univ. of Melbourne,  Australia   (Symmetry handling ABACUS, integral transformation)
  Andrew M. Teale,             University of Nottingham,  England     (DFT-AC, DFT-D)
  David P. Tew,                University of Bristol,     England     (CCSD(R12))
  Julien Toulouse,             Sorbonne Univ.,            France      (MC-srDFT)
  Olav Vahtras,                KTH Stockholm,             Sweden      (Triplet response, spin-orbit, ESR, TDDFT, open-shell DFT)
  Lucas Visscher,              Vrije Universiteit AmsterdaNetherlands (Frozen density embedding)
  David J. Wilson,             La Trobe University,       Australia   (DFT Hessian and DFT magnetizabilities)
  Luna Zamok,                  University of Copenhagen,  Denmark     (Block Lanczos RPA solver in SOPPA module)
  Hans Agren,                  KTH Stockholm,             Sweden      (SIRIUS module, RESPONS, MC-SCRF solvation)
 --------------------------------------------------------------------------------

     Date and time (Linux)  : Wed Jul  8 11:24:13 2026
     Host name              : n-62-31-7                               

 * Work memory size             :   512000000 =  3.815 gigabytes.

 * Directories for basis set searches:
   1) /work3/jochar/DaltonTests
   2) /zhome/d7/7/119775/My_Codes/Dalton_Release/dalton/build_omp_nov24/basis


Compilation information
-----------------------

 Who compiled             | soco
 Host                     | hpclogin1
 System                   | Linux-6.1.112-1.el9.elrepo.x86_64
 CMake generator          | Unix Makefiles
 Processor                | x86_64
 64-bit integers          | OFF
 MPI                      | OFF
 Fortran compiler         | /appl/intel/2023.2.0.49397/compiler/2023.2.0/linux
                          | /bin/intel64/ifort
 Fortran compiler version | ifort (IFORT) 2021.10.0 20230609
 C compiler               | /appl/intel/2023.2.0.49397/compiler/2023.2.0/linux
                          | /bin/intel64/icc
 C compiler version       | icc (ICC) 2021.10.0 20230609
 C++ compiler             | /appl/intel/2023.2.0.49397/compiler/2023.2.0/linux
                          | /bin/intel64/icpc
 C++ compiler version     | icpc (ICC) 2021.10.0 20230609
 Static linking           | OFF
 Last Git revision        | a531ac4fbf115ebda1c90140ce3fd6aa236a2033
 Git branch               | master
 Configuration time       | 2024-11-14 11:23:30.470039

 * Sequential calculation.


   Content of the .dal input file
 ----------------------------------

**DALTON INPUT
.RUN WAVE FUNCTIONS   !tipo di calcolo
.RUN RESPONSE
**INTEGRALS
.DIPLEN               !integrali dell'operatore dipolo elettrico
**WAVE FUNCTION
.HF
.CI
!*PRINT
!.PRINTL
!   0 11
*SCF INP              !parte da Hartree-Fock
.DOUBLY OCCUPIED
2 0 0 0 1 0 0 0
.THRESH               !soglia di convergenza
 1.0D-10
*CONFIGURATION INPUT
.SPIN MULTIPLICITY
1
.SYMMETRY
1
.INACTIVE ORBITALS !the inner electrons are kept frozen
0 0 0 0 0 0 0 0
.CAS SPACE
3 1 1 0 2 0 0 0
.ELECTRONS
6
**RESPONS
*LINEAR
.THCLR
1.0d-9
.THCPP
1.0d-9
.DIPLEN
.SINGLE RESIDUE
.ROOTS
300 300 300 300 300 300 300 300
**END OF INPUT


   Content of the .mol file
 ----------------------------

BASIS
STO-3G
test VQE
dalton test
Atomtypes=2 Angstrom
Charge=4.0 Atoms=1
Be    0.0000000000000000  0.0000000000000000  0.0
Charge=1.0 Atoms=2
H     1.3300000000000000  0.0000000000000000  0.0
H    -1.3300000000000000  0.0000000000000000  0.0


       *******************************************************************
       *********** Output from DALTON general input processing ***********
       *******************************************************************

 --------------------------------------------------------------------------------
   Overall default print level:    0
   Print level for DALTON.STAT:    1

    HERMIT 1- and 2-electron integral sections will be executed
    "Old" integral transformation used (limited to max 255 basis functions)
    Wave function sections will be executed (SIRIUS module)
    Dynamic molecular response properties section will be executed (RESPONSE module)
 --------------------------------------------------------------------------------


   ****************************************************************************
   *************** Output of molecule and basis set information ***************
   ****************************************************************************


    The two title cards from your ".mol" input:
    --------------------------------------------------------------------------------
 1: test VQE
 2: dalton test
    --------------------------------------------------------------------------------

  Coordinates are entered in Angstrom and converted to atomic units.
          - Conversion factor : 1 bohr = 0.52917721 A

  Atomic type no.    1
  --------------------
  Nuclear charge:   4.00000
  Number of symmetry independent centers:    1
  Number of basis sets to read;    2
  Basis set file used for this atomic type with Z =   4 :
     "/zhome/d7/7/119775/My_Codes/Dalton_Release/dalton/build_omp_nov24/basis/STO-3G"

  Atomic type no.    2
  --------------------
  Nuclear charge:   1.00000
  Number of symmetry independent centers:    2
  Number of basis sets to read;    2
  Basis set file used for this atomic type with Z =   1 :
     "/zhome/d7/7/119775/My_Codes/Dalton_Release/dalton/build_omp_nov24/basis/STO-3G"


                      SYMADD: Requested addition of symmetry
                      --------------------------------------

 Symmetry test threshold:  5.00E-06

@  The molecule has been centered at center of mass and rotated
@  so the principal axes of inertia are along coordinate axes.

 Symmetry class found: D(oo,h)        

 Symmetry Independent Centres             
 ----------------------------
Be     4 :      0.00000000     0.00000000     0.00000000  Isotope  1
H      1 :      0.00000000     0.00000000     2.51333575  Isotope  1

 The following symmetry elements were found:   X  Y  Z  


                         SYMGRP: Point group information
                         -------------------------------

@    Full point group is: D(oo,h)        
@    Represented as:      D2h

@  * The irrep name for each symmetry:    1: Ag     2: B3u    3: B2u    4: B1g    5: B1u    6: B2g    7: B3g    8: Au 


   * The point group was generated by:

      Reflection in the yz-plane
      Reflection in the xz-plane
      Reflection in the xy-plane

   * Group multiplication table

        |  E   C2z  C2y  C2x   i   Oxy  Oxz  Oyz
   -----+----------------------------------------
     E  |  E   C2z  C2y  C2x   i   Oxy  Oxz  Oyz
    C2z | C2z   E   C2x  C2y  Oxy   i   Oyz  Oxz
    C2y | C2y  C2x   E   C2z  Oxz  Oyz   i   Oxy
    C2x | C2x  C2y  C2z   E   Oyz  Oxz  Oxy   i 
     i  |  i   Oxy  Oxz  Oyz   E   C2z  C2y  C2x
    Oxy | Oxy   i   Oyz  Oxz  C2z   E   C2x  C2y
    Oxz | Oxz  Oyz   i   Oxy  C2y  C2x   E   C2z
    Oyz | Oyz  Oxz  Oxy   i   C2x  C2y  C2z   E 

   * Character table

        |  E   C2z  C2y  C2x   i   Oxy  Oxz  Oyz
   -----+----------------------------------------
    Ag  |   1    1    1    1    1    1    1    1
    B3u |   1   -1   -1    1   -1    1    1   -1
    B2u |   1   -1    1   -1   -1    1   -1    1
    B1g |   1    1   -1   -1    1    1   -1   -1
    B1u |   1    1   -1   -1   -1   -1    1    1
    B2g |   1   -1    1   -1    1   -1    1   -1
    B3g |   1   -1   -1    1    1   -1   -1    1
    Au  |   1    1    1    1   -1   -1   -1   -1

   * Direct product table

        | Ag   B3u  B2u  B1g  B1u  B2g  B3g  Au 
   -----+----------------------------------------
    Ag  | Ag   B3u  B2u  B1g  B1u  B2g  B3g  Au 
    B3u | B3u  Ag   B1g  B2u  B2g  B1u  Au   B3g
    B2u | B2u  B1g  Ag   B3u  B3g  Au   B1u  B2g
    B1g | B1g  B2u  B3u  Ag   Au   B3g  B2g  B1u
    B1u | B1u  B2g  B3g  Au   Ag   B3u  B2u  B1g
    B2g | B2g  B1u  Au   B3g  B3u  Ag   B1g  B2u
    B3g | B3g  Au   B1u  B2g  B2u  B1g  Ag   B3u
    Au  | Au   B3g  B2g  B1u  B1g  B2u  B3u  Ag 


                                 Isotopic Masses
                                 ---------------

                           Be          9.012183
                           H   _1      1.007825
                           H   _2      1.007825

                       Total mass:    11.027833 amu
                       Natural abundance:  99.970 %

 Center-of-mass coordinates (a.u.):    0.000000    0.000000    0.000000
 Center-of-mass coordinates (Angs):    0.000000    0.000000    0.000000


  Atoms and basis sets
  --------------------

  Number of atom types :    2
  Total number of atoms:    3

  Basis set used is "STO-3G" from the basis set library.

  label    atoms   charge   prim   cont     basis
  ----------------------------------------------------------------------
  Be          1    4.0000    15     5      [6s3p|2s1p]                                        
  H           2    1.0000     3     1      [3s|1s]                                            
  ----------------------------------------------------------------------
  total:      3    6.0000    21     7
  ----------------------------------------------------------------------

  Threshold for neglecting AO integrals:  1.00D-12


  Cartesian Coordinates (a.u.)
  ----------------------------

  Total number of coordinates:    9
  Be      :     1  x   0.0000000000    2  y   0.0000000000    3  z   0.0000000000
  H   / 1 :     4  x   0.0000000000    5  y   0.0000000000    6  z   2.5133357462
  H   / 2 :     7  x   0.0000000000    8  y   0.0000000000    9  z  -2.5133357462


  Symmetry Coordinates
  --------------------

  Number of coordinates in each symmetry:     1    2    2    0    2    1    1    0

  Symmetry  Ag  ( 1)

    1   H     z    [  6  -    9 ]/2

  Symmetry  B3u ( 2)

    2   Be    x    1
    3   H     x    [  4  +    7 ]/2

  Symmetry  B2u ( 3)

    4   Be    y    2
    5   H     y    [  5  +    8 ]/2

  Symmetry  B1u ( 5)

    6   Be    z    3
    7   H     z    [  6  +    9 ]/2

  Symmetry  B2g ( 6)

    8   H     x    [  4  -    7 ]/2

  Symmetry  B3g ( 7)

    9   H     y    [  5  -    8 ]/2


   Interatomic separations (in Angstrom):
   --------------------------------------

            Be          H   _1      H   _2
            ------      ------      ------
 Be    :    0.000000
 H   _1:    1.330000    0.000000
 H   _2:    1.330000    2.660000    0.000000


  Max    interatomic separation is    2.6600 Angstrom (    5.0267 Bohr)
  between atoms    3 and    2, "H   _2" and "H   _1".

  Min HX interatomic separation is    1.3300 Angstrom (    2.5133 Bohr)


  Bond distances (Angstrom):
  --------------------------

                  atom 1     atom 2       distance
                  ------     ------       --------
  bond distance:  H   _1     Be           1.330000
  bond distance:  H   _2     Be           1.330000


  Bond angles (degrees):
  ----------------------

                  atom 1     atom 2     atom 3         angle
                  ------     ------     ------         -----
  bond angle:     H   _1     Be         H   _2       180.000




 Principal moments of inertia (u*A**2) and principal axes
 --------------------------------------------------------

   IA       0.000000          0.000000    0.000000    1.000000
   IB       3.565483          0.000000    1.000000    0.000000
   IC       3.565483          1.000000    0.000000    0.000000


 Rotational constants
 --------------------

@    The molecule is linear.

               B =       141742.08 MHz     (    4.728007 cm-1)


@  Nuclear repulsion energy :    3.381959617895 Hartree


  Symmetry Orbitals
  -----------------

  Number of orbitals in each symmetry:           3    1    1    0    2    0    0    0


  Symmetry  Ag ( 1)

    1     Be       1s         1
    2     Be       1s         2
    3     H        1s         6 +    7


  Symmetry  B3u( 2)

    4     Be       2px        3


  Symmetry  B2u( 3)

    5     Be       2py        4


  No orbitals in symmetry  B1g( 4)


  Symmetry  B1u( 5)

    6     Be       2pz        5
    7     H        1s         6 -    7


  No orbitals in symmetry  B2g( 6)


  No orbitals in symmetry  B3g( 7)


  No orbitals in symmetry  Au ( 8)

  Symmetries of electric field:  B3u(2)  B2u(3)  B1u(5)

  Symmetries of magnetic field:  B3g(7)  B2g(6)  B1g(4)


                     .---------------------------------------.
                     | Starting in Integral Section (HERMIT) |
                     `---------------------------------------'



 ***************************************************************************************
 ****************** Output from **INTEGRALS input processing (HERMIT) ******************
 ***************************************************************************************



    *************************************************************************
    ****************** Output from HERMIT input processing ******************
    *************************************************************************


 Default print level:        1

 Calculation of one- and two-electron Hamiltonian integrals.

 The following one-electron property integrals are calculated as requested:
          - overlap integrals
          - dipole length integrals

 Center of mass  (bohr):      0.000000000000      0.000000000000      0.000000000000
 Operator center (bohr):      0.000000000000      0.000000000000      0.000000000000
 Gauge origin    (bohr):      0.000000000000      0.000000000000      0.000000000000
 Dipole origin   (bohr):      0.000000000000      0.000000000000      0.000000000000

Calculation of 2-electron integrals are postponed until they are needed.


     ************************************************************************
     ************************** Output from HERINT **************************
     ************************************************************************



                      Nuclear contribution to dipole moments
                      --------------------------------------

                    All dipole components are zero by symmetry


  Total CPU  time used in HERMIT:   0.01 seconds
  Total wall time used in HERMIT:   0.09 seconds


                        .----------------------------------.
                        | End of Integral Section (HERMIT) |
                        `----------------------------------'



                   .--------------------------------------------.
                   | Starting in Wave Function Section (SIRIUS) |
                   `--------------------------------------------'


     WARNING  Reference state is required for CI response and CI-NO
     WARNING  ".STATE" was not specified for "*CI INPUT",
     WARNING  the reference state is set to be state no.  1

 *** Output from Huckel module :

     Using EWMO model:          F
     Using EHT  model:          T
     Number of Huckel orbitals each symmetry:    3    1    1    0    2    0    0    0

 Huckel EHT eigenvalues for symmetry :  1
           -4.748538      -0.663015      -0.161126

 Huckel EHT eigenvalues for symmetry :  2
           -0.206000

 Huckel EHT eigenvalues for symmetry :  3
           -0.206000

 Huckel EHT eigenvalues for symmetry :  5
           -0.588245      -0.087076

 **********************************************************************
 *SIRIUS* a direct, restricted step, second order MCSCF program       *
 **********************************************************************

 
     Date and time (Linux)  : Wed Jul  8 11:24:14 2026
     Host name              : n-62-31-7                               

 Title lines from ".mol" input file:
     test VQE
     dalton test

 Print level on unit LUPRI =   2 is   0
 Print level on unit LUW4  =   2 is   5

@    Configuration interaction calculation.

@    CI response calculation.

@    CI type: user specified active spaces.
@              Type: complete active space calculation (CAS).

@    This is a combination run starting with
@              a restricted, closed shell Hartree-Fock calculation


 Initial molecular orbitals are obtained according to
 ".MOSTART EHT   " input option

     Wave function specification
     ============================
@    Wave function type        --- CI ---
@    Number of closed shell electrons           0
@    Number of electrons in active shells       6
@    Total charge of the molecule               0

@    Spin multiplicity and 2 M_S                1         0
@    Total number of symmetries                 8 (point group: D2h)
@    Reference state symmetry                   1 (irrep name : Ag )

     Orbital specifications
     ======================
@    Abelian symmetry species          All |    1    2    3    4    5    6    7    8
@                                          |  Ag   B3u  B2u  B1g  B1u  B2g  B3g  Au 
                                       --- |  ---  ---  ---  ---  ---  ---  ---  ---
@    Inactive orbitals                   0 |    0    0    0    0    0    0    0    0
@    Active orbitals                     7 |    3    1    1    0    2    0    0    0
@    Secondary orbitals                  0 |    0    0    0    0    0    0    0    0
@    Total number of orbitals            7 |    3    1    1    0    2    0    0    0
@    Number of basis functions           7 |    3    1    1    0    2    0    0    0

      -- Initial occupation of symmetries is determined from user input.                      
      -- Initial occupation of symmetries is :
@    Occupied SCF orbitals               3 |    2    0    0    0    1    0    0    0

     Optimization information
     ========================
@    Number of configurations                93
@    Number of orbital rotations              0
     ------------------------------------------
@    Total number of variables               93

     Maximum number of CI iterations         25
     Threshold for CI convergence      1.00D-05
     Number of CI roots to converge           1

@    Reference state in CI response calculation :       1


 ***********************************************
 ***** DIIS acceleration of SCF iterations *****
 ***********************************************

 C1-DIIS algorithm; max error vectors =    2

 Iter      Total energy        Error norm    Delta(E)  DIIS dim.
 -----------------------------------------------------------------------------

Calculating AOSUPINT

---> (Re)generating AOTWOINT


     ************************************************************************
     ************************** Output from HERINT **************************
     ************************************************************************


 Threshold for neglecting two-electron integrals:  1.00D-12
 HERMIT - Number of two-electron integrals written:         106 ( 26.1% )
 HERMIT - Megabytes written:                              0.137

     (Precalculated AO two-electron integrals are transformed to P-supermatrix elements.
      Threshold for discarding integrals :  1.00D-12 )

@  1    -15.5382417672        5.43347D-01   -1.55D+01    1
      Virial theorem: -V/T =      1.975662
@    MULPOP   Be      0.44; H   _1 -0.22; H   _2 -0.22; 
   1  Level shift: doubly occupied orbital energies shifted by -2.00D-01
 -----------------------------------------------------------------------------
@  2    -15.5591382138        1.03079D-01   -2.09D-02    2
      Virial theorem: -V/T =      1.986244
@    MULPOP   Be      0.16; H   _1 -0.08; H   _2 -0.08; 
   2  Level shift: doubly occupied orbital energies shifted by -5.00D-02
 -----------------------------------------------------------------------------
@  3    -15.5600942433        6.26742D-03   -9.56D-04    2
      Virial theorem: -V/T =      1.987910
@    MULPOP   Be      0.09; H   _1 -0.05; H   _2 -0.05; 
   3  Level shift: doubly occupied orbital energies shifted by -1.25D-02
 -----------------------------------------------------------------------------
@  4    -15.5600983316        6.51160D-04   -4.09D-06    2
      Virial theorem: -V/T =      1.987937
@    MULPOP   Be      0.09; H   _1 -0.04; H   _2 -0.04; 
 -----------------------------------------------------------------------------
@  5    -15.5600983833        8.03669D-05   -5.17D-08    2
      Virial theorem: -V/T =      1.987937
@    MULPOP   Be      0.09; H   _1 -0.04; H   _2 -0.04; 
 -----------------------------------------------------------------------------
@  6    -15.5600983843        5.44669D-06   -1.02D-09    2
      Virial theorem: -V/T =      1.987937
@    MULPOP   Be      0.09; H   _1 -0.04; H   _2 -0.04; 
 -----------------------------------------------------------------------------
@  7    -15.5600983843        1.64575D-07   -5.00D-12    2
      Virial theorem: -V/T =      1.987937
@    MULPOP   Be      0.09; H   _1 -0.04; H   _2 -0.04; 
 -----------------------------------------------------------------------------
@  8    -15.5600983843        1.46095D-08   -7.11D-15    2
      Virial theorem: -V/T =      1.987937
@    MULPOP   Be      0.09; H   _1 -0.04; H   _2 -0.04; 
 -----------------------------------------------------------------------------
@  9    -15.5600983843        3.11927D-09    3.55D-15    2
      Virial theorem: -V/T =      1.987937
@    MULPOP   Be      0.09; H   _1 -0.04; H   _2 -0.04; 
 -----------------------------------------------------------------------------
@ 10    -15.5600983843        3.86915D-10   -3.55D-15    2
      Virial theorem: -V/T =      1.987937
@    MULPOP   Be      0.09; H   _1 -0.04; H   _2 -0.04; 
 -----------------------------------------------------------------------------
@ 11    -15.5600983843        1.30044D-11    0.00D+00    2

@ *** DIIS converged in  11 iterations !
@     Converged SCF energy, gradient:    -15.560098384318    1.30D-11
    - total time used in SIRFCK :              0.00 seconds

 --- Writing SIRIFC interface file

--------------------------------------------------------------------------------


     .--------------------------------------------------.
     | HF-SCF KT IPs [a.u. & eV] from Koopmans' theorem |
     `--------------------------------------------------'


     HF-SCF KT symmetry 1 ( Ag ) in point group D2h -- 2 principal poles with pole strength 1

   ============  ============
       4.519610      0.457702
     122.984843     12.454710
   ============  ============

     HF-SCF KT symmetry 5 ( B1u) in point group D2h -- 1 principal poles with pole strength 1

   ============
       0.421615
      11.472732
   ============

@ Summary of HF-SCF KT ionization potentials [eV]:

@ Symmetry 1 (Ag ) :   122.985      12.455

@ Symmetry 2 (B3u) :  No IPs in this symmetry

@ Symmetry 3 (B2u) :  No IPs in this symmetry

@ Symmetry 4 (B1g) :  No IPs in this symmetry

@ Symmetry 5 (B1u) :    11.473

@ Symmetry 6 (B2g) :  No IPs in this symmetry

@ Symmetry 7 (B3g) :  No IPs in this symmetry

@ Symmetry 8 (Au ) :  No IPs in this symmetry

  === End of HF-SCF KT output ===
--------------------------------------------------------------------------------


 CPU and wall time for SCF :       0.066       0.476


 ----- Output from SIRIUS CI module (CICTL) -----




 2-el. integral transformation level 0: Total CPU and WALL times (sec)       0.006       0.081

 (CIST1) 8 lowest diagonal elements:

 Element no. Config.no.    Active energy      Total energy

         1 :         11    -18.9420580022    -15.5600983843
         2 :         55    -18.3417865437    -14.9598269258
         3 :          2    -18.1873940147    -14.8054343968
         4 :          5    -18.1873940147    -14.8054343968
         5 :         14    -18.1327030291    -14.7507434112
         6 :         17    -18.1327030291    -14.7507434112
         7 :         36    -17.9392579383    -14.5572983204
         8 :          1    -17.7934379859    -14.4114783680

Lowest 1 elements are used as separate start CI vectors.


 Convergence threshold for CI optimization :     0.00001000


 CI root     eigenvalue        residual norm

    1      -15.5600983843        0.2222171925

 CI root     eigenvalue        residual norm

    1      -15.5934201500        0.0502523835

 CI root     eigenvalue        residual norm

    1      -15.5949899110        0.0128738614

 CI root     eigenvalue        residual norm

    1      -15.5951042460        0.0045587509

 CI root     eigenvalue        residual norm

    1      -15.5951168955        0.0012296556

 CI root     eigenvalue        residual norm

    1      -15.5951175503        0.0001753885

 CI root     eigenvalue        residual norm

    1      -15.5951175647        0.0000271067

 CI root     eigenvalue        residual norm

    1      -15.5951175651        0.0000035203 converged

 The requested root number is now converged.


 *** CI converged in  8 iterations.



@ Final CI energies and residuals in symmetry 1 (irrep Ag )
@    1      -15.595117565065664       3.52D-06

 Writing SIRIFC interface file for CI root no. 1

 CPU and wall time for CI :       0.021       0.206


                       .-----------------------------------.
                       | --- Final results from SIRIUS --- |
                       `-----------------------------------'


@    Spin multiplicity:           1
@    Spatial symmetry:            1 ( irrep  Ag  in D2h )
@    Total charge of molecule:    0

@    This was a CI calculation.
@    State number:                1

@    Final CI energy:             -15.595117565066
@    Nuclear repulsion:             3.381959617895
@    Electronic energy:           -18.977077182960

@    Final gradient norm:           0.000003520333

 
     Date and time (Linux)  : Wed Jul  8 11:24:15 2026
     Host name              : n-62-31-7                               

 Occupancies of natural orbitals
 -------------------------------

 Symmetry 1  ( Ag ) -- Total occupation in this symmetry is   3.998290253

   1.999943229   1.969780735   0.028566289

  Effective numbers of unpaired electrons this symmetry Eqs. 1) and 2):  0.12  0.01

 Symmetry 2  ( B3u) -- Total occupation in this symmetry is   0.006737188

   0.006737188

  Effective numbers of unpaired electrons this symmetry Eqs. 1) and 2):  0.01  0.00

 Symmetry 3  ( B2u) -- Total occupation in this symmetry is   0.006737188

   0.006737188

  Effective numbers of unpaired electrons this symmetry Eqs. 1) and 2):  0.01  0.00

 Symmetry 4  ( B1g) -- No occupied orbitals

 Symmetry 5  ( B1u) -- Total occupation in this symmetry is   1.988235370

   1.974603017   0.013632353

  Effective numbers of unpaired electrons this symmetry Eqs. 1) and 2):  0.08  0.00

 Symmetry 6  ( B2g) -- No occupied orbitals

 Symmetry 7  ( B3g) -- No occupied orbitals

 Symmetry 8  ( Au ) -- No occupied orbitals

  Total effective number of unpaired electrons :
  Eq. 1) sum(i) [(2 - n_i) n_i]    =  0.2200
  Eq. 2) sum(i) [(2 - n_i) n_i]**2 =  0.0103
 (Reference: M. Head-Gordon, Chemical Physics Letters 372 (2003) 508-511)

  --- NOTE THAT THE OCCUPATION NUMBERS ARE FOR ANALYSIS PURPOSE ONLY
  --- The orbital coefficients have NOT been transformed
  --- to ordered natural orbitals.

File label for MO orbitals:   8Jul26    CIORB  

 (Only coefficients > 0.0100 are printed.)

 Molecular orbitals for symmetry species 1  (Ag )
 ------------------------------------------------

    Orbital         1        2        3
   1 Be  :1s     0.9918  -0.2245  -0.2181
   2 Be  :1s     0.0318   0.5565   1.2335
   3 H   :1s    -0.0028   0.3945  -0.8227

 Molecular orbitals for symmetry species 2  (B3u)
 ------------------------------------------------

    Orbital         1
   1 Be  :2px    1.0000

 Molecular orbitals for symmetry species 3  (B2u)
 ------------------------------------------------

    Orbital         1
   1 Be  :2py    1.0000

 Molecular orbitals for symmetry species 5  (B1u)
 ------------------------------------------------

    Orbital         1        2
   1 Be  :2pz    0.5035   1.4589
   2 H   :1s     0.4047  -1.0355

 Printout of CI-coefficients abs greater than 0.05000 for root  1
 *** NOTE: this root is the CI reference state ***

 Printout of coefficients in interval  3.1623E-01 to  1.0000E+00
 ===============================================================

  Coefficient of CSF no.        11 is      0.98598734    9.85987345E-01
  Orbital          1   2   6
  Spin coupling    2   2   2

 Printout of coefficients in interval  1.0000E-01 to  3.1623E-01
 ===============================================================
   ( no coefficients )

 Printout of coefficients in interval  5.0000E-02 to  1.0000E-01
 ===============================================================

  Coefficient of CSF no.         1 is     -0.07997640   -7.99763962E-02
  Orbital          1   2   3
  Spin coupling    2   2   2

  Coefficient of CSF no.        12 is     -0.05790328   -5.79032834E-02
  Orbital          1   3   6
  Spin coupling    2   2   2

  Coefficient of CSF no.        14 is     -0.05633394   -5.63339386E-02
  Orbital          1   4   6
  Spin coupling    2   2   2

  Coefficient of CSF no.        17 is     -0.05633394   -5.63339386E-02
  Orbital          1   5   6
  Spin coupling    2   2   2

  Coefficient of CSF no.        76 is     -0.07354503   -7.35450348E-02
  Orbital          1   2   3   6   7
  Spin coupling    2   1   1  -1  -1

  Coefficient of CSF no.        77 is     -0.05579426   -5.57942588E-02
  Orbital          1   2   3   6   7
  Spin coupling    2   1  -1   1  -1

 Norm of printed CI vector ..      0.99678895

 Magnitude of CI coefficients
 ============================
 ( Ranges are relative to norm of vector :  1.00E+00 )

  10- 1 to 10- 0         1    0.97217104E+00      0.9721710437
  10- 2 to 10- 1         9    0.27294168E-01      0.9994652118
  10- 3 to 10- 2        21    0.53017709E-03      0.9999953889
  10- 4 to 10- 3        33    0.45119538E-05      0.9999999008
  10- 5 to 10- 4        25    0.99048378E-07      0.9999999999
  10- 6 to 10- 5         3    0.12824966E-09      1.0000000000
  10- 7 to 10- 6         1    0.13906507E-13      1.0000000000
  Number of coefficients less than 10^-11 times norm is            0

  Total CPU  time used in SIRIUS :   0.12 seconds
  Total wall time used in SIRIUS :   0.90 seconds

 
     Date and time (Linux)  : Wed Jul  8 11:24:15 2026
     Host name              : n-62-31-7                               


                     .---------------------------------------.
                     | End of Wave Function Section (SIRIUS) |
                     `---------------------------------------'



                 .------------------------------------------------.
                 | Starting in Dynamic Property Section (RESPONS) |
                 `------------------------------------------------'


 ----------------------------------------------------------------------------------------
  RESPONSE  -  an MCSCF, MC-srDFT, DFT, SOPPA and SOPPA-srDFT response property program
 ----------------------------------------------------------------------------------------

 This is a configuration interaction response calculation.
   Note: this is equivalent to a CI sum-over-states calculation of response properties.


 -------- OUTPUT FROM RESPONSE INPUT PROCESSING --------




  Linear Response single residue calculation
 -------------------------------------------


    5 input options by user.

 Print level                                    : IPRPP  =   2
 Maximum number of iterations for eigenval.eqs. : MAXITP =  60
 Threshold for convergence of eigenvalue eqs.   : THCPP  = 1.000D-09
 Maximum iterations in optimal orbital algorithm: MAXITO =   5

    300 Excitation energies are calculated for symmetry no.    1

    300 Excitation energies are calculated for symmetry no.    2

      1 property residues are calculated with labels:

               XDIPLEN 

    300 Excitation energies are calculated for symmetry no.    3

      1 property residues are calculated with labels:

               YDIPLEN 

    300 Excitation energies are calculated for symmetry no.    4

    300 Excitation energies are calculated for symmetry no.    5

      1 property residues are calculated with labels:

               ZDIPLEN 

    300 Excitation energies are calculated for symmetry no.    6

    300 Excitation energies are calculated for symmetry no.    7

    300 Excitation energies are calculated for symmetry no.    8

 Old direct access AO file found, SORTA skipped.

 2-el. integral transformation level 4: Total CPU and WALL times (sec)       0.005       0.044


 CI energy            :      -15.595117565065664
 -- inactive part     :        3.381959617894736
 --   active part     :      -18.977077182960400
 -- nuclear repulsion :        3.381959617894736


                         *******************************
                         *** CI response calculation ***
                         *******************************

 ----------------------------------------------------------------
 ----- Linear response calculation
 ----- Symmetry of excitation/property operator(s)    1  ( Ag )
 ----------------------------------------------------------------

 Number of excitations of this symmetry          300
 Number of response properties of this symmetry    0
 Number of C6/C8 properties of this symmetry       0


 Perturbation symmetry.     KSYMOP:           1
 Perturbation spin symmetry.TRPLET:           F
 Orbital variables.         KZWOPT:           0
 Configuration variables.   KZCONF:          93
 Total number of variables. KZVAR :          93

 ** RSPVAR ** Number of PP start vectors  300
   exceeds the maximum number of variables   92
   Number of start vectors reset to number of variables



 --- EXCITATION ENERGIES AND TRANSITION MOMENT CALCULATION (MCTDHF) ---

 Operator symmetry = 1  ( Ag ); triplet =   F

RSPORT:    1 out of   93 new trial vectors linear dependent

 ** RSPCTL MICROITERATION NUMBER    1

      Root  Residual tot.,    conf., and orb.    Bnorm      Eigenvalue
      ----------------------------------------------------------------
         1    9.77402D-15  9.77D-15  0.00D+00  1.00D+00    5.34536D-01
         2    2.07494D-14  2.07D-14  0.00D+00  1.00D+00    5.76470D-01
         3    1.54966D-14  1.55D-14  0.00D+00  1.00D+00    7.16118D-01
         4    1.32851D-14  1.33D-14  0.00D+00  1.00D+00    9.28739D-01
         5    1.97939D-14  1.98D-14  0.00D+00  1.00D+00    9.29873D-01
         6    1.39091D-14  1.39D-14  0.00D+00  1.00D+00    9.87679D-01
         7    1.31671D-14  1.32D-14  0.00D+00  1.00D+00    1.13156D+00
         8    1.54083D-14  1.54D-14  0.00D+00  1.00D+00    1.24245D+00
         9    1.75228D-14  1.75D-14  0.00D+00  1.00D+00    1.30980D+00
        10    1.25326D-14  1.25D-14  0.00D+00  1.00D+00    1.39509D+00
        11    1.45474D-14  1.45D-14  0.00D+00  1.00D+00    1.60548D+00
        12    1.37829D-14  1.38D-14  0.00D+00  1.00D+00    1.65425D+00
        13    2.16313D-14  2.16D-14  0.00D+00  1.00D+00    1.75936D+00
        14    1.38673D-14  1.39D-14  0.00D+00  1.00D+00    1.82017D+00
        15    1.78693D-14  1.79D-14  0.00D+00  1.00D+00    1.86527D+00
        16    1.72955D-14  1.73D-14  0.00D+00  1.00D+00    1.96295D+00
        17    2.03703D-14  2.04D-14  0.00D+00  1.00D+00    1.98720D+00
        18    1.71643D-14  1.72D-14  0.00D+00  1.00D+00    2.06760D+00
        19    1.49402D-14  1.49D-14  0.00D+00  1.00D+00    2.23987D+00
        20    1.72479D-14  1.72D-14  0.00D+00  1.00D+00    2.45276D+00
        21    2.52448D-14  2.52D-14  0.00D+00  1.00D+00    2.67758D+00
        22    1.96482D-14  1.96D-14  0.00D+00  1.00D+00    2.74831D+00
        23    1.93697D-14  1.94D-14  0.00D+00  1.00D+00    2.82997D+00
        24    3.15947D-14  3.16D-14  0.00D+00  1.00D+00    3.06316D+00
        25    1.66477D-14  1.66D-14  0.00D+00  1.00D+00    4.41431D+00
        26    2.03341D-14  2.03D-14  0.00D+00  1.00D+00    4.51095D+00
        27    1.94450D-14  1.94D-14  0.00D+00  1.00D+00    4.60893D+00
        28    1.34440D-14  1.34D-14  0.00D+00  1.00D+00    4.90194D+00
        29    1.61091D-14  1.61D-14  0.00D+00  1.00D+00    4.93356D+00
        30    2.77382D-14  2.77D-14  0.00D+00  1.00D+00    5.10497D+00
        31    2.00132D-14  2.00D-14  0.00D+00  1.00D+00    5.13863D+00
        32    2.63760D-14  2.64D-14  0.00D+00  1.00D+00    5.17489D+00
        33    1.98621D-14  1.99D-14  0.00D+00  1.00D+00    5.26794D+00
        34    2.22162D-14  2.22D-14  0.00D+00  1.00D+00    5.38980D+00
        35    2.88481D-14  2.88D-14  0.00D+00  1.00D+00    5.39550D+00
        36    1.52412D-14  1.52D-14  0.00D+00  1.00D+00    5.49222D+00
        37    1.71267D-14  1.71D-14  0.00D+00  1.00D+00    5.54996D+00
        38    1.94396D-14  1.94D-14  0.00D+00  1.00D+00    5.55699D+00
        39    1.70338D-14  1.70D-14  0.00D+00  1.00D+00    5.63083D+00
        40    1.76005D-14  1.76D-14  0.00D+00  1.00D+00    5.72409D+00
        41    1.69009D-14  1.69D-14  0.00D+00  1.00D+00    5.77392D+00
        42    1.67836D-14  1.68D-14  0.00D+00  1.00D+00    5.79832D+00
        43    2.74926D-14  2.75D-14  0.00D+00  1.00D+00    5.90661D+00
        44    2.31192D-14  2.31D-14  0.00D+00  1.00D+00    6.00855D+00
        45    2.41315D-14  2.41D-14  0.00D+00  1.00D+00    6.03016D+00
        46    2.32750D-14  2.33D-14  0.00D+00  1.00D+00    6.12655D+00
        47    1.53614D-14  1.54D-14  0.00D+00  1.00D+00    6.13262D+00
        48    2.06376D-14  2.06D-14  0.00D+00  1.00D+00    6.20231D+00
        49    2.18014D-14  2.18D-14  0.00D+00  1.00D+00    6.24228D+00
        50    3.08865D-14  3.09D-14  0.00D+00  1.00D+00    6.34458D+00
        51    1.63382D-14  1.63D-14  0.00D+00  1.00D+00    6.52814D+00
        52    3.01939D-14  3.02D-14  0.00D+00  1.00D+00    6.57617D+00
        53    2.94329D-14  2.94D-14  0.00D+00  1.00D+00    6.68710D+00
        54    2.27903D-14  2.28D-14  0.00D+00  1.00D+00    6.86592D+00
        55    3.75613D-14  3.76D-14  0.00D+00  1.00D+00    6.93689D+00
        56    2.43457D-14  2.43D-14  0.00D+00  1.00D+00    7.02312D+00
        57    3.80060D-14  3.80D-14  0.00D+00  1.00D+00    9.84473D+00
        58    2.96588D-14  2.97D-14  0.00D+00  1.00D+00    9.87934D+00
        59    5.69593D-14  5.70D-14  0.00D+00  1.00D+00    1.03339D+01
        60    6.80563D-14  6.81D-14  0.00D+00  1.00D+00    1.05037D+01
        61    5.37777D-14  5.38D-14  0.00D+00  1.00D+00    1.05137D+01
        62    5.93455D-14  5.93D-14  0.00D+00  1.00D+00    1.06402D+01
        63    2.87781D-14  2.88D-14  0.00D+00  1.00D+00    1.07132D+01
        64    3.44395D-14  3.44D-14  0.00D+00  1.00D+00    1.07181D+01
        65    4.01890D-14  4.02D-14  0.00D+00  1.00D+00    1.07492D+01
        66    2.73817D-14  2.74D-14  0.00D+00  1.00D+00    1.09699D+01
        67    3.82434D-14  3.82D-14  0.00D+00  1.00D+00    1.09954D+01
        68    5.40847D-14  5.41D-14  0.00D+00  1.00D+00    1.10464D+01
        69    3.36524D-14  3.37D-14  0.00D+00  1.00D+00    1.11374D+01
        70    4.42133D-14  4.42D-14  0.00D+00  1.00D+00    1.11991D+01
        71    4.59508D-14  4.60D-14  0.00D+00  1.00D+00    1.12931D+01
        72    4.01586D-14  4.02D-14  0.00D+00  1.00D+00    1.13547D+01
        73    4.04924D-14  4.05D-14  0.00D+00  1.00D+00    1.13909D+01
        74    4.35436D-14  4.35D-14  0.00D+00  1.00D+00    1.14789D+01
        75    4.79705D-14  4.80D-14  0.00D+00  1.00D+00    1.15248D+01
        76    5.86846D-14  5.87D-14  0.00D+00  1.00D+00    1.15632D+01
        77    6.06993D-14  6.07D-14  0.00D+00  1.00D+00    1.16762D+01
        78    5.56212D-14  5.56D-14  0.00D+00  1.00D+00    1.16897D+01
        79    4.52619D-14  4.53D-14  0.00D+00  1.00D+00    1.17390D+01
        80    7.31981D-14  7.32D-14  0.00D+00  1.00D+00    1.17520D+01
        81    3.40217D-14  3.40D-14  0.00D+00  1.00D+00    1.20475D+01
        82    9.49813D-14  9.50D-14  0.00D+00  1.00D+00    1.20542D+01
        83    5.80847D-14  5.81D-14  0.00D+00  1.00D+00    1.20948D+01
        84    2.92169D-14  2.92D-14  0.00D+00  1.00D+00    1.21934D+01
        85    6.55779D-14  6.56D-14  0.00D+00  1.00D+00    1.22149D+01
        86    4.87423D-14  4.87D-14  0.00D+00  1.00D+00    1.23865D+01
        87    5.04536D-14  5.05D-14  0.00D+00  1.00D+00    1.23901D+01
        88    4.60523D-14  4.61D-14  0.00D+00  1.00D+00    1.24341D+01
        89    2.73145D-14  2.73D-14  0.00D+00  1.00D+00    1.25498D+01
        90    3.17328D-14  3.17D-14  0.00D+00  1.00D+00    1.27855D+01
        91    5.90127D-14  5.90D-14  0.00D+00  1.00D+00    1.28816D+01
        92    5.51285D-14  5.51D-14  0.00D+00  1.00D+00    1.29894D+01
        93    1.47992D-14  1.48D-14  0.00D+00  1.00D+00   -5.34536D-01

 *** THE REQUESTED   92 SOLUTION VECTORS CONVERGED

 Convergence of RSP solution vectors, threshold = 1.00D-09
 ---------------------------------------------------------------
 (dimension of paired reduced space:  184)
 RSP solution vector no.    1; norm of residual   9.77D-15
 RSP solution vector no.    2; norm of residual   2.07D-14
 RSP solution vector no.    3; norm of residual   1.55D-14
 RSP solution vector no.    4; norm of residual   1.33D-14
 RSP solution vector no.    5; norm of residual   1.98D-14
 RSP solution vector no.    6; norm of residual   1.39D-14
 RSP solution vector no.    7; norm of residual   1.32D-14
 RSP solution vector no.    8; norm of residual   1.54D-14
 RSP solution vector no.    9; norm of residual   1.75D-14
 RSP solution vector no.   10; norm of residual   1.25D-14
 RSP solution vector no.   11; norm of residual   1.45D-14
 RSP solution vector no.   12; norm of residual   1.38D-14
 RSP solution vector no.   13; norm of residual   2.16D-14
 RSP solution vector no.   14; norm of residual   1.39D-14
 RSP solution vector no.   15; norm of residual   1.79D-14
 RSP solution vector no.   16; norm of residual   1.73D-14
 RSP solution vector no.   17; norm of residual   2.04D-14
 RSP solution vector no.   18; norm of residual   1.72D-14
 RSP solution vector no.   19; norm of residual   1.49D-14
 RSP solution vector no.   20; norm of residual   1.72D-14
 RSP solution vector no.   21; norm of residual   2.52D-14
 RSP solution vector no.   22; norm of residual   1.96D-14
 RSP solution vector no.   23; norm of residual   1.94D-14
 RSP solution vector no.   24; norm of residual   3.16D-14
 RSP solution vector no.   25; norm of residual   1.66D-14
 RSP solution vector no.   26; norm of residual   2.03D-14
 RSP solution vector no.   27; norm of residual   1.94D-14
 RSP solution vector no.   28; norm of residual   1.34D-14
 RSP solution vector no.   29; norm of residual   1.61D-14
 RSP solution vector no.   30; norm of residual   2.77D-14
 RSP solution vector no.   31; norm of residual   2.00D-14
 RSP solution vector no.   32; norm of residual   2.64D-14
 RSP solution vector no.   33; norm of residual   1.99D-14
 RSP solution vector no.   34; norm of residual   2.22D-14
 RSP solution vector no.   35; norm of residual   2.88D-14
 RSP solution vector no.   36; norm of residual   1.52D-14
 RSP solution vector no.   37; norm of residual   1.71D-14
 RSP solution vector no.   38; norm of residual   1.94D-14
 RSP solution vector no.   39; norm of residual   1.70D-14
 RSP solution vector no.   40; norm of residual   1.76D-14
 RSP solution vector no.   41; norm of residual   1.69D-14
 RSP solution vector no.   42; norm of residual   1.68D-14
 RSP solution vector no.   43; norm of residual   2.75D-14
 RSP solution vector no.   44; norm of residual   2.31D-14
 RSP solution vector no.   45; norm of residual   2.41D-14
 RSP solution vector no.   46; norm of residual   2.33D-14
 RSP solution vector no.   47; norm of residual   1.54D-14
 RSP solution vector no.   48; norm of residual   2.06D-14
 RSP solution vector no.   49; norm of residual   2.18D-14
 RSP solution vector no.   50; norm of residual   3.09D-14
 RSP solution vector no.   51; norm of residual   1.63D-14
 RSP solution vector no.   52; norm of residual   3.02D-14
 RSP solution vector no.   53; norm of residual   2.94D-14
 RSP solution vector no.   54; norm of residual   2.28D-14
 RSP solution vector no.   55; norm of residual   3.76D-14
 RSP solution vector no.   56; norm of residual   2.43D-14
 RSP solution vector no.   57; norm of residual   3.80D-14
 RSP solution vector no.   58; norm of residual   2.97D-14
 RSP solution vector no.   59; norm of residual   5.70D-14
 RSP solution vector no.   60; norm of residual   6.81D-14
 RSP solution vector no.   61; norm of residual   5.38D-14
 RSP solution vector no.   62; norm of residual   5.93D-14
 RSP solution vector no.   63; norm of residual   2.88D-14
 RSP solution vector no.   64; norm of residual   3.44D-14
 RSP solution vector no.   65; norm of residual   4.02D-14
 RSP solution vector no.   66; norm of residual   2.74D-14
 RSP solution vector no.   67; norm of residual   3.82D-14
 RSP solution vector no.   68; norm of residual   5.41D-14
 RSP solution vector no.   69; norm of residual   3.37D-14
 RSP solution vector no.   70; norm of residual   4.42D-14
 RSP solution vector no.   71; norm of residual   4.60D-14
 RSP solution vector no.   72; norm of residual   4.02D-14
 RSP solution vector no.   73; norm of residual   4.05D-14
 RSP solution vector no.   74; norm of residual   4.35D-14
 RSP solution vector no.   75; norm of residual   4.80D-14
 RSP solution vector no.   76; norm of residual   5.87D-14
 RSP solution vector no.   77; norm of residual   6.07D-14
 RSP solution vector no.   78; norm of residual   5.56D-14
 RSP solution vector no.   79; norm of residual   4.53D-14
 RSP solution vector no.   80; norm of residual   7.32D-14
 RSP solution vector no.   81; norm of residual   3.40D-14
 RSP solution vector no.   82; norm of residual   9.50D-14
 RSP solution vector no.   83; norm of residual   5.81D-14
 RSP solution vector no.   84; norm of residual   2.92D-14
 RSP solution vector no.   85; norm of residual   6.56D-14
 RSP solution vector no.   86; norm of residual   4.87D-14
 RSP solution vector no.   87; norm of residual   5.05D-14
 RSP solution vector no.   88; norm of residual   4.61D-14
 RSP solution vector no.   89; norm of residual   2.73D-14
 RSP solution vector no.   90; norm of residual   3.17D-14
 RSP solution vector no.   91; norm of residual   5.90D-14
 RSP solution vector no.   92; norm of residual   5.51D-14

 *** RSPCTL MICROITERATIONS CONVERGED


 **************************************************************************************
 *** @ Excit. operator sym 1 & ref. state sym 1 => excited state symmetry 1  ( Ag ) ***
 **************************************************************************************



 @ Excited state no:    1 in symmetry 1  ( Ag ) - singlet excitation
 -------------------------------------------------------------------

@ Excitation energy :  0.53453641     au
@                       14.545476     eV;   117317.18     cm-1;   1403.4251     kJ / mol

@ Total energy :       -15.060581     au

 Eigenvector for state no.  1

      Index(conf)                         Z operator          Y operator
      ----------                      --------------      --------------
           1                           -0.2677240858        0.0000000000
           2                            0.3312161348        0.0000000000
           5                            0.3312161348        0.0000000000
          12                            0.1439810961        0.0000000000
          14                           -0.3757861550        0.0000000000
          17                           -0.3757861550        0.0000000000
          36                           -0.1025689745        0.0000000000
          39                           -0.1367185006        0.0000000000
          45                           -0.1367185006        0.0000000000
          55                            0.5755915102        0.0000000000

       83 elements with absolute value ≤ 1.00D-01 are not printed.

 Printout of coefficients in interval  3.1623E-01 to  1.0000E+00
 ===============================================================

  Coefficient of CSF no.         2 is      0.33121613    3.31216135E-01
  Orbital          1   2   4
  Spin coupling    2   2   2

  Coefficient of CSF no.         5 is      0.33121613    3.31216135E-01
  Orbital          1   2   5
  Spin coupling    2   2   2

  Coefficient of CSF no.        14 is     -0.37578615   -3.75786155E-01
  Orbital          1   4   6
  Spin coupling    2   2   2

  Coefficient of CSF no.        17 is     -0.37578615   -3.75786155E-01
  Orbital          1   5   6
  Spin coupling    2   2   2

  Coefficient of CSF no.        55 is      0.57559151    5.75591510E-01
  Orbital          1   6   2   3
  Spin coupling    2   2   1  -1

 Printout of coefficients in interval  1.0000E-01 to  3.1623E-01
 ===============================================================

  Coefficient of CSF no.         1 is     -0.26772409   -2.67724086E-01
  Orbital          1   2   3
  Spin coupling    2   2   2

  Coefficient of CSF no.        12 is      0.14398110    1.43981096E-01
  Orbital          1   3   6
  Spin coupling    2   2   2

  Coefficient of CSF no.        36 is     -0.10256897   -1.02568975E-01
  Orbital          1   2   6   7
  Spin coupling    2   2   1  -1

  Coefficient of CSF no.        39 is     -0.13671850   -1.36718501E-01
  Orbital          1   4   2   3
  Spin coupling    2   2   1  -1

  Coefficient of CSF no.        45 is     -0.13671850   -1.36718501E-01
  Orbital          1   5   2   3
  Spin coupling    2   2   1  -1

 Norm of printed CI vector ..      0.97345534

 Magnitude of CI coefficients
 ============================
 ( Ranges are relative to norm of vector :  1.00E+00 )

  10- 1 to 10- 0        10    0.97345534E+00      0.9734553445
  10- 2 to 10- 1        10    0.26341308E-01      0.9997966527
  10- 3 to 10- 2        18    0.18856285E-03      0.9999852156
  10- 4 to 10- 3        45    0.14756084E-04      0.9999999717
  10- 5 to 10- 4        10    0.28312051E-07      1.0000000000
  Number of coefficients less than 10^-11 times norm is            0


 @ Excited state no:    2 in symmetry 1  ( Ag ) - singlet excitation
 -------------------------------------------------------------------

@ Excitation energy :  0.57647010     au
@                       15.686549     eV;   126520.56     cm-1;   1513.5220     kJ / mol

@ Total energy :       -15.018647     au

 Eigenvector for state no.  2

      Index(conf)                         Z operator          Y operator
      ----------                      --------------      --------------
           2                            0.4990457042        0.0000000000
           5                           -0.4990457042        0.0000000000
          14                           -0.4664352596        0.0000000000
          17                            0.4664352596        0.0000000000
          39                           -0.1569883537        0.0000000000
          45                            0.1569883537        0.0000000000

       87 elements with absolute value ≤ 1.00D-01 are not printed.

 Printout of coefficients in interval  3.1623E-01 to  1.0000E+00
 ===============================================================

  Coefficient of CSF no.         2 is      0.49904570    4.99045704E-01
  Orbital          1   2   4
  Spin coupling    2   2   2

  Coefficient of CSF no.         5 is     -0.49904570   -4.99045704E-01
  Orbital          1   2   5
  Spin coupling    2   2   2

  Coefficient of CSF no.        14 is     -0.46643526   -4.66435260E-01
  Orbital          1   4   6
  Spin coupling    2   2   2

  Coefficient of CSF no.        17 is      0.46643526    4.66435260E-01
  Orbital          1   5   6
  Spin coupling    2   2   2

 Printout of coefficients in interval  1.0000E-01 to  3.1623E-01
 ===============================================================

  Coefficient of CSF no.        39 is     -0.15698835   -1.56988354E-01
  Orbital          1   4   2   3
  Spin coupling    2   2   1  -1

  Coefficient of CSF no.        45 is      0.15698835    1.56988354E-01
  Orbital          1   5   2   3
  Spin coupling    2   2   1  -1

 Printout of coefficients in interval  1.0000E-01 to  1.0000E-01
 ===============================================================
   ( no coefficients )

 Norm of printed CI vector ..      0.98250762

 Magnitude of CI coefficients
 ============================
 ( Ranges are relative to norm of vector :  1.00E+00 )

  10- 1 to 10- 0         6    0.98250762E+00      0.9825076189
  10- 2 to 10- 1         4    0.17309546E-01      0.9998171651
  10- 3 to 10- 2        20    0.17892280E-03      0.9999960879
  10- 4 to 10- 3        12    0.38899143E-05      0.9999999778
  10- 5 to 10- 4        12    0.22173414E-07      1.0000000000
  10- 6 to 10- 5         2    0.61365370E-11      1.0000000000
  Number of coefficients less than 10^-11 times norm is           37


 @ Excited state no:    3 in symmetry 1  ( Ag ) - singlet excitation
 -------------------------------------------------------------------

@ Excitation energy :  0.71611827     au
@                       19.486569     eV;   157169.79     cm-1;   1880.1682     kJ / mol

@ Total energy :       -14.878999     au

 Eigenvector for state no.  3

      Index(conf)                         Z operator          Y operator
      ----------                      --------------      --------------
           1                           -0.1125816915        0.0000000000
           2                           -0.4162481023        0.0000000000
           5                           -0.4162481023        0.0000000000
          14                            0.2051568230        0.0000000000
          17                            0.2051568230        0.0000000000
          55                            0.7286469726        0.0000000000

       87 elements with absolute value ≤ 1.00D-01 are not printed.

 Printout of coefficients in interval  3.1623E-01 to  1.0000E+00
 ===============================================================

  Coefficient of CSF no.         2 is     -0.41624810   -4.16248102E-01
  Orbital          1   2   4
  Spin coupling    2   2   2

  Coefficient of CSF no.         5 is     -0.41624810   -4.16248102E-01
  Orbital          1   2   5
  Spin coupling    2   2   2

  Coefficient of CSF no.        55 is      0.72864697    7.28646973E-01
  Orbital          1   6   2   3
  Spin coupling    2   2   1  -1

 Printout of coefficients in interval  1.0000E-01 to  3.1623E-01
 ===============================================================

  Coefficient of CSF no.         1 is     -0.11258169   -1.12581692E-01
  Orbital          1   2   3
  Spin coupling    2   2   2

  Coefficient of CSF no.        14 is      0.20515682    2.05156823E-01
  Orbital          1   4   6
  Spin coupling    2   2   2

  Coefficient of CSF no.        17 is      0.20515682    2.05156823E-01
  Orbital          1   5   6
  Spin coupling    2   2   2

 Norm of printed CI vector ..      0.97430466

 Magnitude of CI coefficients
 ============================
 ( Ranges are relative to norm of vector :  1.00E+00 )

  10- 1 to 10- 0         6    0.97430466E+00      0.9743046573
  10- 2 to 10- 1        13    0.25222263E-01      0.9995269200
  10- 3 to 10- 2        28    0.46379252E-03      0.9999907125
  10- 4 to 10- 3        38    0.92503815E-05      0.9999999629
  10- 5 to 10- 4         8    0.37117269E-07      1.0000000000
  Number of coefficients less than 10^-11 times norm is            0


 @ Excited state no:    4 in symmetry 1  ( Ag ) - singlet excitation
 -------------------------------------------------------------------

@ Excitation energy :  0.92873945     au
@                       25.272286     eV;   203834.75     cm-1;   2438.4050     kJ / mol

@ Total energy :       -14.666378     au

 Eigenvector for state no.  4

      Index(conf)                         Z operator          Y operator
      ----------                      --------------      --------------
           2                           -0.4941723013        0.0000000000
           5                            0.4941723013        0.0000000000
          14                           -0.4838514122        0.0000000000
          17                            0.4838514122        0.0000000000

       89 elements with absolute value ≤ 1.00D-01 are not printed.

 Printout of coefficients in interval  3.1623E-01 to  1.0000E+00
 ===============================================================

  Coefficient of CSF no.         2 is     -0.49417230   -4.94172301E-01
  Orbital          1   2   4
  Spin coupling    2   2   2

  Coefficient of CSF no.         5 is      0.49417230    4.94172301E-01
  Orbital          1   2   5
  Spin coupling    2   2   2

  Coefficient of CSF no.        14 is     -0.48385141   -4.83851412E-01
  Orbital          1   4   6
  Spin coupling    2   2   2

  Coefficient of CSF no.        17 is      0.48385141    4.83851412E-01
  Orbital          1   5   6
  Spin coupling    2   2   2

 Printout of coefficients in interval  1.0000E-01 to  3.1623E-01
 ===============================================================
   ( no coefficients )

 Printout of coefficients in interval  1.0000E-01 to  1.0000E-01
 ===============================================================
   ( no coefficients )

 Norm of printed CI vector ..      0.95663691

 Magnitude of CI coefficients
 ============================
 ( Ranges are relative to norm of vector :  1.00E+00 )

  10- 1 to 10- 0         4    0.95663691E+00      0.9566369050
  10- 2 to 10- 1         8    0.43029168E-01      0.9996660728
  10- 3 to 10- 2        18    0.32484261E-03      0.9999909154
  10- 4 to 10- 3        20    0.90441539E-05      0.9999999596
  10- 5 to 10- 4         6    0.40432929E-07      1.0000000000
  Number of coefficients less than 10^-11 times norm is           37


 @ Excited state no:    5 in symmetry 1  ( Ag ) - singlet excitation
 -------------------------------------------------------------------

@ Excitation energy :  0.92987339     au
@                       25.303142     eV;   204083.62     cm-1;   2441.3822     kJ / mol

@ Total energy :       -14.665244     au

 Eigenvector for state no.  5

      Index(conf)                         Z operator          Y operator
      ----------                      --------------      --------------
           1                           -0.5896635768        0.0000000000
           2                            0.1410017585        0.0000000000
           5                            0.1410017585        0.0000000000
          12                            0.2245126048        0.0000000000
          14                            0.3572799722        0.0000000000
          17                            0.3572799722        0.0000000000
          36                           -0.4876336764        0.0000000000
          55                           -0.1341289448        0.0000000000
          77                           -0.1809021832        0.0000000000

       84 elements with absolute value ≤ 1.00D-01 are not printed.

 Printout of coefficients in interval  3.1623E-01 to  1.0000E+00
 ===============================================================

  Coefficient of CSF no.         1 is     -0.58966358   -5.89663577E-01
  Orbital          1   2   3
  Spin coupling    2   2   2

  Coefficient of CSF no.        14 is      0.35727997    3.57279972E-01
  Orbital          1   4   6
  Spin coupling    2   2   2

  Coefficient of CSF no.        17 is      0.35727997    3.57279972E-01
  Orbital          1   5   6
  Spin coupling    2   2   2

  Coefficient of CSF no.        36 is     -0.48763368   -4.87633676E-01
  Orbital          1   2   6   7
  Spin coupling    2   2   1  -1

 Printout of coefficients in interval  1.0000E-01 to  3.1623E-01
 ===============================================================

  Coefficient of CSF no.         2 is      0.14100176    1.41001759E-01
  Orbital          1   2   4
  Spin coupling    2   2   2

  Coefficient of CSF no.         5 is      0.14100176    1.41001759E-01
  Orbital          1   2   5
  Spin coupling    2   2   2

  Coefficient of CSF no.        12 is      0.22451260    2.24512605E-01
  Orbital          1   3   6
  Spin coupling    2   2   2

  Coefficient of CSF no.        55 is     -0.13412894   -1.34128945E-01
  Orbital          1   6   2   3
  Spin coupling    2   2   1  -1

  Coefficient of CSF no.        77 is     -0.18090218   -1.80902183E-01
  Orbital          1   2   3   6   7
  Spin coupling    2   1  -1   1  -1

 Printout of coefficients in interval  1.0000E-01 to  1.0000E-01
 ===============================================================
   ( no coefficients )

 Norm of printed CI vector ..      0.98167277

 Magnitude of CI coefficients
 ============================
 ( Ranges are relative to norm of vector :  1.00E+00 )

  10- 1 to 10- 0         9    0.98167277E+00      0.9816727685
  10- 2 to 10- 1         8    0.17704493E-01      0.9993772611
  10- 3 to 10- 2        33    0.61482854E-03      0.9999920896
  10- 4 to 10- 3        30    0.78877310E-05      0.9999999773
  10- 5 to 10- 4        12    0.22563933E-07      0.9999999999
  10- 6 to 10- 5         1    0.89158067E-10      1.0000000000
  Number of coefficients less than 10^-11 times norm is            0


 @ Excited state no:    6 in symmetry 1  ( Ag ) - singlet excitation
 -------------------------------------------------------------------

@ Excitation energy :  0.98767875     au
@                       26.876106     eV;   216770.43     cm-1;   2593.1502     kJ / mol

@ Total energy :       -14.607439     au

 Eigenvector for state no.  6

      Index(conf)                         Z operator          Y operator
      ----------                      --------------      --------------
           1                            0.2149602500        0.0000000000
           2                            0.4188155927        0.0000000000
           5                            0.4188155927        0.0000000000
          12                           -0.3772583031        0.0000000000
          14                            0.3558875245        0.0000000000
          17                            0.3558875245        0.0000000000
          36                            0.1889368267        0.0000000000
          39                            0.1041998820        0.0000000000
          45                            0.1041998820        0.0000000000
          55                            0.3026088633        0.0000000000

       83 elements with absolute value ≤ 1.00D-01 are not printed.

 Printout of coefficients in interval  3.1623E-01 to  1.0000E+00
 ===============================================================

  Coefficient of CSF no.         2 is      0.41881559    4.18815593E-01
  Orbital          1   2   4
  Spin coupling    2   2   2

  Coefficient of CSF no.         5 is      0.41881559    4.18815593E-01
  Orbital          1   2   5
  Spin coupling    2   2   2

  Coefficient of CSF no.        12 is     -0.37725830   -3.77258303E-01
  Orbital          1   3   6
  Spin coupling    2   2   2

  Coefficient of CSF no.        14 is      0.35588752    3.55887524E-01
  Orbital          1   4   6
  Spin coupling    2   2   2

  Coefficient of CSF no.        17 is      0.35588752    3.55887524E-01
  Orbital          1   5   6
  Spin coupling    2   2   2

 Printout of coefficients in interval  1.0000E-01 to  3.1623E-01
 ===============================================================

  Coefficient of CSF no.         1 is      0.21496025    2.14960250E-01
  Orbital          1   2   3
  Spin coupling    2   2   2

  Coefficient of CSF no.        36 is      0.18893683    1.88936827E-01
  Orbital          1   2   6   7
  Spin coupling    2   2   1  -1

  Coefficient of CSF no.        39 is      0.10419988    1.04199882E-01
  Orbital          1   4   2   3
  Spin coupling    2   2   1  -1

  Coefficient of CSF no.        45 is      0.10419988    1.04199882E-01
  Orbital          1   5   2   3
  Spin coupling    2   2   1  -1

  Coefficient of CSF no.        55 is      0.30260886    3.02608863E-01
  Orbital          1   6   2   3
  Spin coupling    2   2   1  -1

 Norm of printed CI vector ..      0.94164108

 Magnitude of CI coefficients
 ============================
 ( Ranges are relative to norm of vector :  1.00E+00 )

  10- 1 to 10- 0        10    0.94164108E+00      0.9416410773
  10- 2 to 10- 1        15    0.58050982E-01      0.9996920592
  10- 3 to 10- 2        23    0.29659724E-03      0.9999886565
  10- 4 to 10- 3        39    0.11310964E-04      0.9999999674
  10- 5 to 10- 4         6    0.32576230E-07      1.0000000000
  Number of coefficients less than 10^-11 times norm is            0


 @ Excited state no:    7 in symmetry 1  ( Ag ) - singlet excitation
 -------------------------------------------------------------------

@ Excitation energy :   1.1315603     au
@                       30.791323     eV;   248348.78     cm-1;   2970.9112     kJ / mol

@ Total energy :       -14.463557     au

 Eigenvector for state no.  7

      Index(conf)                         Z operator          Y operator
      ----------                      --------------      --------------
           1                           -0.1451155260        0.0000000000
          12                            0.5912501886        0.0000000000
          31                           -0.1553925775        0.0000000000
          36                            0.7135689400        0.0000000000
          76                            0.1390475125        0.0000000000
          77                           -0.1170268109        0.0000000000

       87 elements with absolute value ≤ 1.00D-01 are not printed.

 Printout of coefficients in interval  3.1623E-01 to  1.0000E+00
 ===============================================================

  Coefficient of CSF no.        12 is      0.59125019    5.91250189E-01
  Orbital          1   3   6
  Spin coupling    2   2   2

  Coefficient of CSF no.        36 is      0.71356894    7.13568940E-01
  Orbital          1   2   6   7
  Spin coupling    2   2   1  -1

 Printout of coefficients in interval  1.0000E-01 to  3.1623E-01
 ===============================================================

  Coefficient of CSF no.         1 is     -0.14511553   -1.45115526E-01
  Orbital          1   2   3
  Spin coupling    2   2   2

  Coefficient of CSF no.        31 is     -0.15539258   -1.55392578E-01
  Orbital          1   6   7
  Spin coupling    2   2   2

  Coefficient of CSF no.        76 is      0.13904751    1.39047512E-01
  Orbital          1   2   3   6   7
  Spin coupling    2   1   1  -1  -1

  Coefficient of CSF no.        77 is     -0.11702681   -1.17026811E-01
  Orbital          1   2   3   6   7
  Spin coupling    2   1  -1   1  -1

 Printout of coefficients in interval  1.0000E-01 to  1.0000E-01
 ===============================================================
   ( no coefficients )

 Norm of printed CI vector ..      0.93699227

 Magnitude of CI coefficients
 ============================
 ( Ranges are relative to norm of vector :  1.00E+00 )

  10- 1 to 10- 0         6    0.93699227E+00      0.9369922718
  10- 2 to 10- 1        17    0.62773419E-01      0.9997656910
  10- 3 to 10- 2        26    0.22714555E-03      0.9999928365
  10- 4 to 10- 3        37    0.71487037E-05      0.9999999852
  10- 5 to 10- 4         7    0.14774968E-07      1.0000000000
  Number of coefficients less than 10^-11 times norm is            0


 @ Excited state no:    8 in symmetry 1  ( Ag ) - singlet excitation
 -------------------------------------------------------------------

@ Excitation energy :   1.2424515     au
@                       33.808824     eV;   272686.57     cm-1;   3262.0558     kJ / mol

@ Total energy :       -14.352666     au

 Eigenvector for state no.  8

      Index(conf)                         Z operator          Y operator
      ----------                      --------------      --------------
           1                           -0.4707445092        0.0000000000
           3                            0.1097320150        0.0000000000
           6                            0.1097320150        0.0000000000
          12                           -0.4488150658        0.0000000000
          36                            0.4161521570        0.0000000000
          39                           -0.3136240224        0.0000000000
          45                           -0.3136240224        0.0000000000
          76                           -0.3194278234        0.0000000000

[...]

 Coefficient of determinant        36 is     -0.10963283 -1.09632830E-01
 alpha-string:              5  6  7
  beta-string:  1        4     6

 Coefficient of determinant        49 is      0.16413272  1.64132723E-01
 alpha-string:  1  2        5
  beta-string:     2     4        7

 Coefficient of determinant        97 is     -0.16413272 -1.64132723E-01
 alpha-string:     2     4        7
  beta-string:  1  2        5

 Coefficient of determinant       105 is     -0.30749621 -3.07496212E-01
 alpha-string:  1        4     6
  beta-string:     2  3     5

 Coefficient of determinant       111 is      0.10963283  1.09632830E-01
 alpha-string:  1        4     6
  beta-string:              5  6  7

 Coefficient of determinant       121 is     -0.16413272 -1.64132723E-01
 alpha-string:     2        5     7
  beta-string:  1  2     4

 Coefficient of determinant       129 is     -0.30749621 -3.07496212E-01
 alpha-string:  1           5  6
  beta-string:     2  3  4

 Coefficient of determinant       135 is      0.10963283  1.09632830E-01
 alpha-string:  1           5  6
  beta-string:           4     6  7

 Norm of printed part of CI vector ..      0.94153136

  Magnitude of CI coefficients
  ============================

  ( Ranges are relative to norm of vector :  1.00E+00 )

  10- 1 to 10- 0        16    0.94153136E+00    0.94153136E+00
  10- 2 to 10- 1        20    0.57526354E-01    0.99905772E+00
  10- 3 to 10- 2        44    0.93523858E-03    0.99999295E+00
  10- 4 to 10- 3        12    0.70268829E-05    0.99999998E+00
  10- 5 to 10- 4         4    0.19395000E-07    0.10000000E+01
  Number of coefficients less than 10^-11 times norm is            52


 @ Excited state no:   48 in symmetry 8  ( Au ) - singlet excitation
 -------------------------------------------------------------------

@ Excitation energy :   5.1310607     au
@                       139.62326     eV;   1126137.6     cm-1;   13471.598     kJ / mol

@ Total energy :       -10.464057     au

 Eigenvector for state no. 48

      Index(conf)                         Z operator          Y operator
      ----------                      --------------      --------------
           1                           -0.3080537873        0.0000000000
          11                            0.1412882937        0.0000000000
          17                           -0.1704985245        0.0000000000
          18                           -0.1067043180        0.0000000000
          25                           -0.1718912443        0.0000000000
          35                           -0.1412882937        0.0000000000
          41                            0.1704985245        0.0000000000
          42                            0.1067043180        0.0000000000
          49                            0.1718912443        0.0000000000
          61                           -0.2418619981        0.0000000000
          62                           -0.1635291199        0.0000000000
          63                           -0.1363837260        0.0000000000
          67                           -0.2903931879        0.0000000000
          77                            0.1363837260        0.0000000000
          82                            0.2418619981        0.0000000000
          84                            0.2903931879        0.0000000000
          88                            0.1635291199        0.0000000000
          95                           -0.1704985245        0.0000000000
          97                           -0.1718912443        0.0000000000
         101                           -0.1067043180        0.0000000000
         105                            0.1412882937        0.0000000000
         119                            0.1704985245        0.0000000000
         121                            0.1718912443        0.0000000000
         125                            0.1067043180        0.0000000000
         129                           -0.1412882937        0.0000000000
         141                            0.3080537873        0.0000000000

      122 elements with absolute value ≤ 1.00D-01 are not printed.


  Printout of coefficients in interval   0.3162E+00 to  0.1000E+01
  ==============================================================
   ( no coefficients )


  Printout of coefficients in interval   0.1000E+00 to  0.3162E+00
  ==============================================================

 Coefficient of determinant         1 is     -0.30805379 -3.08053787E-01
 alpha-string:  1  2  3
  beta-string:           4  5  6

 Coefficient of determinant        11 is      0.14128829  1.41288294E-01
 alpha-string:     2  3  4
  beta-string:  1           5  6

 Coefficient of determinant        17 is     -0.17049852 -1.70498524E-01
 alpha-string:  1  2     4
  beta-string:        3     5  6

 Coefficient of determinant        18 is     -0.10670432 -1.06704318E-01
 alpha-string:  1     3  4
  beta-string:        3     5  6

 Coefficient of determinant        25 is     -0.17189124 -1.71891244E-01
 alpha-string:  1  2     4
  beta-string:     2        5     7

 Coefficient of determinant        35 is     -0.14128829 -1.41288294E-01
 alpha-string:     2  3     5
  beta-string:  1        4     6

 Coefficient of determinant        41 is      0.17049852  1.70498524E-01
 alpha-string:  1  2        5
  beta-string:        3  4     6

 Coefficient of determinant        42 is      0.10670432  1.06704318E-01
 alpha-string:  1     3     5
  beta-string:        3  4     6

 Coefficient of determinant        49 is      0.17189124  1.71891244E-01
 alpha-string:  1  2        5
  beta-string:     2     4        7

 Coefficient of determinant        61 is     -0.24186200 -2.41861998E-01
 alpha-string:     2     4  5
  beta-string:  1     3        6

 Coefficient of determinant        62 is     -0.16352912 -1.63529120E-01
 alpha-string:        3  4  5
  beta-string:  1     3        6

 Coefficient of determinant        63 is     -0.13638373 -1.36383726E-01
 alpha-string:  1        4  5
  beta-string:     2  3        6

 Coefficient of determinant        67 is     -0.29039319 -2.90393188E-01
 alpha-string:     2     4  5
  beta-string:  1  2              7

 Coefficient of determinant        77 is      0.13638373  1.36383726E-01
 alpha-string:     2  3        6
  beta-string:  1        4  5

 Coefficient of determinant        82 is      0.24186200  2.41861998E-01
 alpha-string:  1     3        6
  beta-string:     2     4  5

 Coefficient of determinant        84 is      0.29039319  2.90393188E-01
 alpha-string:  1  2              7
  beta-string:     2     4  5

 Coefficient of determinant        88 is      0.16352912  1.63529120E-01
 alpha-string:  1     3        6
  beta-string:        3  4  5

 Coefficient of determinant        95 is     -0.17049852 -1.70498524E-01
 alpha-string:        3  4     6
  beta-string:  1  2        5

 Coefficient of determinant        97 is     -0.17189124 -1.71891244E-01
 alpha-string:     2     4        7
  beta-string:  1  2        5

 Coefficient of determinant       101 is     -0.10670432 -1.06704318E-01
 alpha-string:        3  4     6
  beta-string:  1     3     5

 Coefficient of determinant       105 is      0.14128829  1.41288294E-01
 alpha-string:  1        4     6
  beta-string:     2  3     5

 Coefficient of determinant       119 is      0.17049852  1.70498524E-01
 alpha-string:        3     5  6
  beta-string:  1  2     4

 Coefficient of determinant       121 is      0.17189124  1.71891244E-01
 alpha-string:     2        5     7
  beta-string:  1  2     4

 Coefficient of determinant       125 is      0.10670432  1.06704318E-01
 alpha-string:        3     5  6
  beta-string:  1     3  4

 Coefficient of determinant       129 is     -0.14128829 -1.41288294E-01
 alpha-string:  1           5  6
  beta-string:     2  3  4

 Coefficient of determinant       141 is      0.30805379  3.08053787E-01
 alpha-string:           4  5  6
  beta-string:  1  2  3

 Norm of printed part of CI vector ..      0.92598788

  Magnitude of CI coefficients
  ============================

  ( Ranges are relative to norm of vector :  1.00E+00 )

  10- 1 to 10- 0        26    0.92598788E+00    0.92598788E+00
  10- 2 to 10- 1        48    0.73213258E-01    0.99920114E+00
  10- 3 to 10- 2        52    0.79520613E-03    0.99999634E+00
  10- 4 to 10- 3        22    0.36562921E-05    0.10000000E+01
  Number of coefficients less than 10^-11 times norm is             0


 @ Excited state no:   49 in symmetry 8  ( Au ) - singlet excitation
 -------------------------------------------------------------------

@ Excitation energy :   5.1361326     au
@                       139.76128     eV;   1127250.8     cm-1;   13484.914     kJ / mol

@ Total energy :       -10.458985     au

 Eigenvector for state no. 49

      Index(conf)                         Z operator          Y operator
      ----------                      --------------      --------------
          11                            0.3131265049        0.0000000000
          17                           -0.2942804579        0.0000000000
          18                           -0.1173161516        0.0000000000
          25                           -0.1957253257        0.0000000000
          35                            0.3131265049        0.0000000000
          41                           -0.2942804579        0.0000000000
          42                           -0.1173161516        0.0000000000
          49                           -0.1957253257        0.0000000000
          95                           -0.2942804579        0.0000000000
          97                           -0.1957253257        0.0000000000
         101                           -0.1173161516        0.0000000000
         105                            0.3131265049        0.0000000000
         119                           -0.2942804579        0.0000000000
         121                           -0.1957253257        0.0000000000
         125                           -0.1173161516        0.0000000000
         129                            0.3131265049        0.0000000000

      132 elements with absolute value ≤ 1.00D-01 are not printed.


  Printout of coefficients in interval   0.3162E+00 to  0.1000E+01
  ==============================================================
   ( no coefficients )


  Printout of coefficients in interval   0.1000E+00 to  0.3162E+00
  ==============================================================

 Coefficient of determinant        11 is      0.31312650  3.13126505E-01
 alpha-string:     2  3  4
  beta-string:  1           5  6

 Coefficient of determinant        17 is     -0.29428046 -2.94280458E-01
 alpha-string:  1  2     4
  beta-string:        3     5  6

 Coefficient of determinant        18 is     -0.11731615 -1.17316152E-01
 alpha-string:  1     3  4
  beta-string:        3     5  6

 Coefficient of determinant        25 is     -0.19572533 -1.95725326E-01
 alpha-string:  1  2     4
  beta-string:     2        5     7

 Coefficient of determinant        35 is      0.31312650  3.13126505E-01
 alpha-string:     2  3     5
  beta-string:  1        4     6

 Coefficient of determinant        41 is     -0.29428046 -2.94280458E-01
 alpha-string:  1  2        5
  beta-string:        3  4     6

 Coefficient of determinant        42 is     -0.11731615 -1.17316152E-01
 alpha-string:  1     3     5
  beta-string:        3  4     6

 Coefficient of determinant        49 is     -0.19572533 -1.95725326E-01
 alpha-string:  1  2        5
  beta-string:     2     4        7

 Coefficient of determinant        95 is     -0.29428046 -2.94280458E-01
 alpha-string:        3  4     6
  beta-string:  1  2        5

 Coefficient of determinant        97 is     -0.19572533 -1.95725326E-01
 alpha-string:     2     4        7
  beta-string:  1  2        5

 Coefficient of determinant       101 is     -0.11731615 -1.17316152E-01
 alpha-string:        3  4     6
  beta-string:  1     3     5

 Coefficient of determinant       105 is      0.31312650  3.13126505E-01
 alpha-string:  1        4     6
  beta-string:     2  3     5

 Coefficient of determinant       119 is     -0.29428046 -2.94280458E-01
 alpha-string:        3     5  6
  beta-string:  1  2     4

 Coefficient of determinant       121 is     -0.19572533 -1.95725326E-01
 alpha-string:     2        5     7
  beta-string:  1  2     4

 Coefficient of determinant       125 is     -0.11731615 -1.17316152E-01
 alpha-string:        3     5  6
  beta-string:  1     3  4

 Coefficient of determinant       129 is      0.31312650  3.13126505E-01
 alpha-string:  1           5  6
  beta-string:     2  3  4


  Printout of coefficients in interval   0.1000E+00 to  0.1000E+00
  ==============================================================
   ( no coefficients )

 Norm of printed part of CI vector ..      0.94688271

  Magnitude of CI coefficients
  ============================

  ( Ranges are relative to norm of vector :  1.00E+00 )

  10- 1 to 10- 0        16    0.94688271E+00    0.94688271E+00
  10- 2 to 10- 1        36    0.52769308E-01    0.99965202E+00
  10- 3 to 10- 2        24    0.34325438E-03    0.99999528E+00
  10- 4 to 10- 3        20    0.47230944E-05    0.10000000E+01
  Number of coefficients less than 10^-11 times norm is            52


 @ Excited state no:   50 in symmetry 8  ( Au ) - singlet excitation
 -------------------------------------------------------------------

@ Excitation energy :   5.1557316     au
@                       140.29459     eV;   1131552.3     cm-1;   13536.371     kJ / mol

@ Total energy :       -10.439386     au

 Eigenvector for state no. 50

      Index(conf)                         Z operator          Y operator
      ----------                      --------------      --------------
           1                           -0.3415401639        0.0000000000
          11                           -0.1428015254        0.0000000000
          17                           -0.1633634529        0.0000000000
          25                           -0.1494989329        0.0000000000
          35                            0.1428015254        0.0000000000
          41                            0.1633634529        0.0000000000
          49                            0.1494989329        0.0000000000
          58                            0.1136043358        0.0000000000
          61                            0.2707897927        0.0000000000
          62                            0.1811204209        0.0000000000
          67                            0.2989978657        0.0000000000
          81                            0.1136043358        0.0000000000
          82                            0.2707897927        0.0000000000
          84                            0.2989978657        0.0000000000
          88                            0.1811204209        0.0000000000
          95                            0.1633634529        0.0000000000
          97                            0.1494989329        0.0000000000
         105                            0.1428015254        0.0000000000
         119                           -0.1633634529        0.0000000000
         121                           -0.1494989329        0.0000000000
         129                           -0.1428015254        0.0000000000
         141                           -0.3415401639        0.0000000000

      126 elements with absolute value ≤ 1.00D-01 are not printed.


  Printout of coefficients in interval   0.3162E+00 to  0.1000E+01
  ==============================================================

 Coefficient of determinant         1 is     -0.34154016 -3.41540164E-01
 alpha-string:  1  2  3
  beta-string:           4  5  6

 Coefficient of determinant       141 is     -0.34154016 -3.41540164E-01
 alpha-string:           4  5  6
  beta-string:  1  2  3


  Printout of coefficients in interval   0.1000E+00 to  0.3162E+00
  ==============================================================

 Coefficient of determinant        11 is     -0.14280153 -1.42801525E-01
 alpha-string:     2  3  4
  beta-string:  1           5  6

 Coefficient of determinant        17 is     -0.16336345 -1.63363453E-01
 alpha-string:  1  2     4
  beta-string:        3     5  6

 Coefficient of determinant        25 is     -0.14949893 -1.49498933E-01
 alpha-string:  1  2     4
  beta-string:     2        5     7

 Coefficient of determinant        35 is      0.14280153  1.42801525E-01
 alpha-string:     2  3     5
  beta-string:  1        4     6

 Coefficient of determinant        41 is      0.16336345  1.63363453E-01
 alpha-string:  1  2        5
  beta-string:        3  4     6

 Coefficient of determinant        49 is      0.14949893  1.49498933E-01
 alpha-string:  1  2        5
  beta-string:     2     4        7

 Coefficient of determinant        58 is      0.11360434  1.13604336E-01
 alpha-string:     2     4  5
  beta-string:  1  2           6

 Coefficient of determinant        61 is      0.27078979  2.70789793E-01
 alpha-string:     2     4  5
  beta-string:  1     3        6

 Coefficient of determinant        62 is      0.18112042  1.81120421E-01
 alpha-string:        3  4  5
  beta-string:  1     3        6

 Coefficient of determinant        67 is      0.29899787  2.98997866E-01
 alpha-string:     2     4  5
  beta-string:  1  2              7

 Coefficient of determinant        81 is      0.11360434  1.13604336E-01
 alpha-string:  1  2           6
  beta-string:     2     4  5

 Coefficient of determinant        82 is      0.27078979  2.70789793E-01
 alpha-string:  1     3        6
  beta-string:     2     4  5

 Coefficient of determinant        84 is      0.29899787  2.98997866E-01
 alpha-string:  1  2              7
  beta-string:     2     4  5

 Coefficient of determinant        88 is      0.18112042  1.81120421E-01
 alpha-string:  1     3        6
  beta-string:        3  4  5

 Coefficient of determinant        95 is      0.16336345  1.63363453E-01
 alpha-string:        3  4     6
  beta-string:  1  2        5

 Coefficient of determinant        97 is      0.14949893  1.49498933E-01
 alpha-string:     2     4        7
  beta-string:  1  2        5

 Coefficient of determinant       105 is      0.14280153  1.42801525E-01
 alpha-string:  1        4     6
  beta-string:     2  3     5

 Coefficient of determinant       119 is     -0.16336345 -1.63363453E-01
 alpha-string:        3     5  6
  beta-string:  1  2     4

 Coefficient of determinant       121 is     -0.14949893 -1.49498933E-01
 alpha-string:     2        5     7
  beta-string:  1  2     4

 Coefficient of determinant       129 is     -0.14280153 -1.42801525E-01
 alpha-string:  1           5  6
  beta-string:     2  3  4

 Norm of printed part of CI vector ..      0.92789344

  Magnitude of CI coefficients
  ============================

  ( Ranges are relative to norm of vector :  1.00E+00 )

  10- 1 to 10- 0        22    0.92789344E+00    0.92789344E+00
  10- 2 to 10- 1        38    0.70843697E-01    0.99873714E+00
  10- 3 to 10- 2        58    0.12533536E-02    0.99999049E+00
  10- 4 to 10- 3        30    0.95103540E-05    0.10000000E+01
  Number of coefficients less than 10^-11 times norm is             0


 Time used in polarization propagator calculation is      3.53 CPU seconds for symmetry 8

  Total CPU  time used in RESPONSE:  24.64 seconds
  Total wall time used in RESPONSE:   7.32 seconds


                   .-------------------------------------------.
                   | End of Dynamic Property Section (RESPONS) |
                   `-------------------------------------------'

  Total CPU  time used in DALTON:  24.81 seconds
  Total wall time used in DALTON:   8.59 seconds

 NOTE:    1 warnings have been issued.
 Check output, result, and error files for "WARNING".

 
     Date and time (Linux)  : Wed Jul  8 11:24:22 2026
     Host name              : n-62-31-7                               
