

     ************************************************************************
     *************** Dalton - An Electronic Structure Program ***************
     ************************************************************************

    This is output from DALTON release Dalton2024.0-dev (2024)
         ( Web site: http://daltonprogram.org )

   ----------------------------------------------------------------------------

    NOTE:
     
    Dalton is an experimental code for the evaluation of molecular
    properties using (MC)SCF, DFT, CI, and CC wave functions.
    The authors accept no responsibility for the performance of
    the code or for the correctness of the results.
     
    The code (in whole or part) is provided under a licence and
    is not to be reproduced for further distribution without
    the written permission of the authors or their representatives.
     
    See the home page "http://daltonprogram.org" for further information.
     
    If results obtained with this code are published,
    the appropriate citations would be both of:
     
       K. Aidas, C. Angeli, K. L. Bak, V. Bakken,
       R. Bast, L. Boman, O. Christiansen, R. Cimiraglia,
       S. Coriani, P. Dahle, E. K. Dalskov, U. Ekstroem,
       T. Enevoldsen, J. J. Eriksen, P. Ettenhuber, B. Fernandez,
       L. Ferrighi, H. Fliegl, L. Frediani, K. Hald, A. Halkier,
       C. Haettig, H. Heiberg, T. Helgaker, A. C. Hennum,
       H. Hettema, E. Hjertenaes, S. Hoest, I.-M. Hoeyvik,
       M. F. Iozzi, B. Jansik, H. J. Aa. Jensen, D. Jonsson,
       P. Joergensen, J. Kauczor, S. Kirpekar,
       T. Kjaergaard, W. Klopper, S. Knecht, R. Kobayashi, H. Koch,
       J. Kongsted, A. Krapp, K. Kristensen, A. Ligabue,
       O. B. Lutnaes, J. I. Melo, K. V. Mikkelsen, R. H. Myhre,
       C. Neiss, C. B. Nielsen, P. Norman, J. Olsen,
       J. M. H. Olsen, A. Osted, M. J. Packer, F. Pawlowski,
       T. B. Pedersen, P. F. Provasi, S. Reine, Z. Rinkevicius,
       T. A. Ruden, K. Ruud, V. Rybkin, P. Salek, C. C. M. Samson,
       A. Sanchez de Meras, T. Saue, S. P. A. Sauer,
       B. Schimmelpfennig, K. Sneskov, A. H. Steindal,
       K. O. Sylvester-Hvid, P. R. Taylor, A. M. Teale,
       E. I. Tellgren, D. P. Tew, A. J. Thorvaldsen, L. Thoegersen,
       O. Vahtras, M. A. Watson, D. J. D. Wilson, M. Ziolkowski
       and H. Agren,
       "The Dalton quantum chemistry program system",
       WIREs Comput. Mol. Sci. 2014, 4:269-284 (doi: 10.1002/wcms.1172)
     
    and
     
       Dalton, a molecular electronic structure program,
       Release Dalton2024.0-dev (2024), see http://daltonprogram.org
   ----------------------------------------------------------------------------

    Authors in alphabetical order (Major contribution(s) in parenthesis):

  Kestutis Aidas,              Vilnius University,        Lithuania   (QM/MM)
  Celestino Angeli,            University of Ferrara,     Italy       (NEVPT2)
  Juan J. Aucar,               Northeast National UniversiArgentina   (LRESC, Relativistic Effects on EFG)
  Keld L. Bak,                 UNI-C,                     Denmark     (AOSOPPA, non-adiabatic coupling, magnetic properties)
  Vebjoern Bakken,             University of Oslo,        Norway      (DALTON; geometry optimizer, symmetry detection)
  Radovan Bast,                UiT The Arctic U. of NorwayNorway      (DALTON installation and execution frameworks)
  Pablo Baudin,                University of Valencia,    Spain       (Cholesky excitation energies)
  Linus Boman,                 NTNU,                      Norway      (Cholesky decomposition and subsystems)
  Bruno N. Cabral Tenorio,     Technical Univ. of Denmark,Denmark     (Lanczos-based CC methods)
  Ove Christiansen,            Aarhus University,         Denmark     (CC module)
  Renzo Cimiraglia,            University of Ferrara,     Italy       (NEVPT2)
  Sonia Coriani,               Technical Univ. of Denmark,Denmark     (CC and RESPONS modules)
  Janusz Cukras,               University of Warsaw,      Poland      (MChD in RESPONS)
  Paal Dahle,                  University of Oslo,        Norway      (Parallelization)
  Erik K. Dalskov,             UNI-C,                     Denmark     (SOPPA)
  Thomas Enevoldsen,           Univ. of Southern Denmark, Denmark     (SOPPA)
  Janus J. Eriksen,            Aarhus University,         Denmark     (Polarizable embedding, TDA)
  Rasmus Faber,                Technical Univ. of Denmark,Denmark     (Vib.avg. NMR w. SOPPA, parallel AO-SOPPA, CVS-CC and EOMCC)
  Tobias Fahleson,             KTH Stockholm,             Sweden      (Damped cubic response)
  Berta Fernandez,             U. of Santiago de CompostelSpain       (Doublet spin, ESR in RESPONS)
  Lara Ferrighi,               Aarhus University,         Denmark     (PCM Cubic response)
  Heike Fliegl,                University of Oslo,        Norway      (CCSD(R12))
  Luca Frediani,               UiT The Arctic U. of NorwayNorway      (PCM)
  Emmanuel Fromager,           Univ. Strasbourg,          France      (MC-srDFT)
  Bin Gao,                     UiT The Arctic U. of NorwayNorway      (Gen1Int library)
  Andre S. P. Gomes,           CNRS/Universite de Lille,  France      (Frozen density embedding)
  Christof Haettig,            Ruhr-University Bochum,    Germany     (CC module)
  Kasper Hald,                 Aarhus University,         Denmark     (CC module)
  Asger Halkier,               Aarhus University,         Denmark     (CC module)
  Frederik Beyer Hansen,       University of Copenhagen,  Denmark     (Parallel AO-SOPPA)
  Erik D. Hedegaard,           Univ. of Southern Denmark, Denmark     (Polarizable embedding, QM/MM, and MC-srDFT)
  Hanne Heiberg,               University of Oslo,        Norway      (Geometry analysis, selected one-electron integrals)
  Trygve Helgaker,             University of Oslo,        Norway      (DALTON; ABACUS, ERI, DFT modules, London, and much more)
  Alf Christian Hennum,        University of Oslo,        Norway      (Parity violation)
  Hinne Hettema,               University of Auckland,    New Zealand (Quadratic response in RESPONS; SIRIUS supersymmetry)
  Andreas E. Hillers-Bendtsen, University of Copenhagen,  Denmark     (MP3)
  Eirik Hjertenaes,            NTNU,                      Norway      (Cholesky decomposition)
  Nicolai Machholdt Hoeyer,    Aarhus University,         Denmark     (MP3)
  Pi A. B. Haase,              University of Copenhagen,  Denmark     (Triplet AO-SOPPA)
  Maria Francesca Iozzi,       University of Oslo,        Norway      (RPA)
  Christoph Jacob,             TU Braunschweig            Germany     (Frozen density embedding)
  Brano Jansik,                Technical Univ. of Ostrava Czech Rep.  (DFT cubic response)
  Hans Joergen Aa. Jensen,     Univ. of Southern Denmark, Denmark     (DALTON; SIRIUS, RESPONS, ABACUS, MC-srDFT, and much more)
  Dan Jonsson,                 UiT The Arctic U. of NorwayNorway      (Cubic response in RESPONS module)
  Poul Joergensen,             Aarhus University,         Denmark     (RESPONS, ABACUS, and CC modules)
  Maciej Kaminski,             University of Warsaw,      Poland      (CPPh in RESPONS)
  Joanna Kauczor,              Linkoeping University,     Sweden      (Complex polarization propagator (CPP) module)
  Sheela Kirpekar,             Univ. of Southern Denmark, Denmark     (Mass-velocity & Darwin integrals)
  Frederik Oersted Kjeldal,    Technical Univ. of Denmark,Denmark     (MP3)
  Erik Kjellgren,              Univ. of Southern Denmark, Denmark     (MC-srDFT)
  Wim Klopper,                 KIT Karlsruhe,             Germany     (R12 code in CC, SIRIUS, and ABACUS modules)
  Stefan Knecht,               ETH Zurich,                Switzerland (Parallel CI and MCSCF, MC-srDFT)
  Rika Kobayashi,              Australian National Univ., Australia   (DIIS in CC, London in MCSCF)
  Henrik Koch,                 NTNU,                      Norway      (CC module, Cholesky decomposition)
  Jacob Kongsted,              Univ. of Southern Denmark, Denmark     (Polarizable embedding, polarizable density embedding, QM/MM)
  Andrea Ligabue,              University of Modena,      Italy       (CTOCD, AOSOPPA)
  Nanna H. List,               Univ. of Southern Denmark, Denmark     (Polarizable embedding)
  Ola B. Lutnaes,              University of Oslo,        Norway      (DFT Hessian)
  Juan I. Melo,                University of Buenos Aires,Argentina   (LRESC, Relativistic Effects on NMR Shieldings)
  Kurt V. Mikkelsen,           University of Copenhagen,  Denmark     (MC-SCRF, QM/MM, and MP3)
  Rolf H. Myhre,               NTNU,                      Norway      (Subsystems and CC3)
  Christian Neiss,             Univ. Erlangen-Nuernberg,  Germany     (CCSD(R12))
  Christian B. Nielsen,        University of Copenhagen,  Denmark     (QM/MM)
  Patrick Norman,              KTH Stockholm,             Sweden      (Cubic response and complex frequency response in RESPONS)
  Jeppe Olsen,                 Aarhus University,         Denmark     (SIRIUS CI/density modules)
  Jogvan Magnus H. Olsen,      Aarhus University,         Denmark     (Polarizable embedding and polarizable density embedding)
  Anders Osted,                Copenhagen University,     Denmark     (QM/MM)
  Martin J. Packer,            University of Sheffield,   UK          (SOPPA)
  Filip Pawlowski,             Kazimierz Wielki UniversityPoland      (CC3)
  Morten N. Pedersen,          Univ. of Southern Denmark, Denmark     (Polarizable embedding)
  Thomas B. Pedersen,          University of Oslo,        Norway      (Cholesky decomposition)
  Patricio F. Provasi,         University of Northeastern,Argentina   (Analysis of coupling constants in localized orbitals)
  Peter Reinholdt,             Univ. of Southern Denmark, Denmark     (Polarizable embedding and polarizable density embedding)
  Zilvinas Rinkevicius,        KTH Stockholm,             Sweden      (open-shell DFT, ESR)
  Elias Rudberg,               KTH Stockholm,             Sweden      (DFT grid and basis info)
  Torgeir A. Ruden,            University of Oslo,        Norway      (Numerical derivatives in ABACUS)
  Kenneth Ruud,                UiT The Arctic U. of NorwayNorway      (DALTON; ABACUS magnetic properties and much more)
  Pawel Salek,                 KTH Stockholm,             Sweden      (DALTON; DFT code)
  Claire C. M. Samson,         University of Karlsruhe    Germany     (Boys localization, r12 integrals in ERI)
  Alfredo Sanchez de Meras,    University of Valencia,    Spain       (CC module, Cholesky decomposition)
  Trond Saue,                  Paul Sabatier University,  France      (direct Fock matrix construction)
  Stephan P. A. Sauer,         University of Copenhagen,  Denmark     (SOPPA(CCSD), SOPPA prop., AOSOPPA, vibrational g-factors)
  Bernd Schimmelpfennig,       Forschungszentrum KarlsruheGermany     (AMFI module)
  Anna K. Schnack-Petersen,    University of Copenhagen,  Denmark     (RPA(D) and HRPA(D) properties in AOSOPPA)
  Kristian Sneskov,            Aarhus University,         Denmark     (Polarizable embedding, QM/MM)
  Arnfinn H. Steindal,         UiT The Arctic U. of NorwayNorway      (parallel QM/MM, polarizable embedding)
  Casper Steinmann,            Aalborg University,        Denmark     (QFIT, polarizable embedding)
  K. O. Sylvester-Hvid,        University of Copenhagen,  Denmark     (MC-SCRF)
  Peter R. Taylor,             VLSCI/Univ. of Melbourne,  Australia   (Symmetry handling ABACUS, integral transformation)
  Andrew M. Teale,             University of Nottingham,  England     (DFT-AC, DFT-D)
  David P. Tew,                University of Bristol,     England     (CCSD(R12))
  Julien Toulouse,             Sorbonne Univ.,            France      (MC-srDFT)
  Olav Vahtras,                KTH Stockholm,             Sweden      (Triplet response, spin-orbit, ESR, TDDFT, open-shell DFT)
  Lucas Visscher,              Vrije Universiteit AmsterdaNetherlands (Frozen density embedding)
  David J. Wilson,             La Trobe University,       Australia   (DFT Hessian and DFT magnetizabilities)
  Luna Zamok,                  University of Copenhagen,  Denmark     (Block Lanczos RPA solver in SOPPA module)
  Hans Agren,                  KTH Stockholm,             Sweden      (SIRIUS module, RESPONS, MC-SCRF solvation)
 --------------------------------------------------------------------------------

     Date and time (Linux)  : Tue Jul  7 15:27:04 2026
     Host name              : n-62-31-21                              

 * Work memory size             :   512000000 =  3.815 gigabytes.

 * Directories for basis set searches:
   1) /work3/jochar/DaltonTests
   2) /zhome/d7/7/119775/My_Codes/Dalton_Release/dalton/build_omp_nov24/basis


Compilation information
-----------------------

 Who compiled             | soco
 Host                     | hpclogin1
 System                   | Linux-6.1.112-1.el9.elrepo.x86_64
 CMake generator          | Unix Makefiles
 Processor                | x86_64
 64-bit integers          | OFF
 MPI                      | OFF
 Fortran compiler         | /appl/intel/2023.2.0.49397/compiler/2023.2.0/linux
                          | /bin/intel64/ifort
 Fortran compiler version | ifort (IFORT) 2021.10.0 20230609
 C compiler               | /appl/intel/2023.2.0.49397/compiler/2023.2.0/linux
                          | /bin/intel64/icc
 C compiler version       | icc (ICC) 2021.10.0 20230609
 C++ compiler             | /appl/intel/2023.2.0.49397/compiler/2023.2.0/linux
                          | /bin/intel64/icpc
 C++ compiler version     | icpc (ICC) 2021.10.0 20230609
 Static linking           | OFF
 Last Git revision        | a531ac4fbf115ebda1c90140ce3fd6aa236a2033
 Git branch               | master
 Configuration time       | 2024-11-14 11:23:30.470039

 * Sequential calculation.


   Content of the .dal input file
 ----------------------------------

**DALTON INPUT
.RUN WAVE FUNCTIONS   !tipo di calcolo
.RUN RESPONSE
**INTEGRALS
.DIPLEN               !integrali dell'operatore dipolo elettrico
**WAVE FUNCTION
.HF
.CI
!*PRINT
!.PRINTL
!   0 11
*SCF INP              !parte da Hartree-Fock
.DOUBLY OCCUPIED
5
.THRESH               !soglia di convergenza
 1.0D-10
*CONFIGURATION INPUT
.SPIN MULTIPLICITY
1
.SYMMETRY
1
.INACTIVE ORBITALS !the inner electrons are kept frozen
2
.CAS SPACE
5
.ELECTRONS
6
**RESPONS
*LINEAR
.THCLR
1.0d-9
.DIPLEN
.SINGLE RESIDUE
.ROOTS
300
**END OF INPUT


   Content of the .mol file
 ----------------------------

BASIS
cc-pVDZ
test VQE
dalton test
Atomtypes=2 Angstrom Nosymmetry
Charge=8.0 Atoms=1
O     0.1035000000000000  0.0000000000000000  0.0
Charge=1.0 Atoms=2
H    -0.4640000000000000  0.7956000000000000  0.0
H    -0.4640000000000000  -0.7956000000000000  0.0


       *******************************************************************
       *********** Output from DALTON general input processing ***********
       *******************************************************************

 --------------------------------------------------------------------------------
   Overall default print level:    0
   Print level for DALTON.STAT:    1

    HERMIT 1- and 2-electron integral sections will be executed
    "Old" integral transformation used (limited to max 255 basis functions)
    Wave function sections will be executed (SIRIUS module)
    Dynamic molecular response properties section will be executed (RESPONSE module)
 --------------------------------------------------------------------------------


   ****************************************************************************
   *************** Output of molecule and basis set information ***************
   ****************************************************************************


    The two title cards from your ".mol" input:
    --------------------------------------------------------------------------------
 1: test VQE
 2: dalton test
    --------------------------------------------------------------------------------

  Coordinates are entered in Angstrom and converted to atomic units.
          - Conversion factor : 1 bohr = 0.52917721 A

  Atomic type no.    1
  --------------------
  Nuclear charge:   8.00000
  Number of symmetry independent centers:    1
  Number of basis sets to read;    2
  Basis set file used for this atomic type with Z =   8 :
     "/zhome/d7/7/119775/My_Codes/Dalton_Release/dalton/build_omp_nov24/basis/cc-pVDZ"

  Atomic type no.    2
  --------------------
  Nuclear charge:   1.00000
  Number of symmetry independent centers:    2
  Number of basis sets to read;    2
  Basis set file used for this atomic type with Z =   1 :
     "/zhome/d7/7/119775/My_Codes/Dalton_Release/dalton/build_omp_nov24/basis/cc-pVDZ"


                         SYMGRP: Point group information
                         -------------------------------

@    Point group: C1 


                                 Isotopic Masses
                                 ---------------

                           O          15.994915
                           H           1.007825
                           H           1.007825

                       Total mass:    18.010565 amu
                       Natural abundance:  99.730 %

 Center-of-mass coordinates (a.u.):    0.075567    0.000000    0.000000
 Center-of-mass coordinates (Angs):    0.039988    0.000000    0.000000


  Atoms and basis sets
  --------------------

  Number of atom types :    2
  Total number of atoms:    3

  Basis set used is "cc-pVDZ" from the basis set library.

  label    atoms   charge   prim   cont     basis
  ----------------------------------------------------------------------
  O           1    8.0000    26    14      [9s4p1d|3s2p1d]                                    
  H           2    1.0000     7     5      [4s1p|2s1p]                                        
  ----------------------------------------------------------------------
  total:      3   10.0000    40    24
  ----------------------------------------------------------------------
  Spherical harmonic basis used.

  Threshold for neglecting AO integrals:  1.00D-12


  Cartesian Coordinates (a.u.)
  ----------------------------

  Total number of coordinates:    9
  O       :     1  x   0.1955866539    2  y   0.0000000000    3  z   0.0000000000
  H       :     4  x  -0.8768329220    5  y   1.5034661050    6  z   0.0000000000
  H       :     7  x  -0.8768329220    8  y  -1.5034661050    9  z   0.0000000000


   Interatomic separations (in Angstrom):
   --------------------------------------

            O           H           H     
            ------      ------      ------
 O     :    0.000000
 H     :    0.977259    0.000000
 H     :    0.977259    1.591200    0.000000


  Max    interatomic separation is    1.5912 Angstrom (    3.0069 Bohr)
  between atoms    3 and    2, "H     " and "H     ".

  Min HX interatomic separation is    0.9773 Angstrom (    1.8468 Bohr)


  Bond distances (Angstrom):
  --------------------------

                  atom 1     atom 2       distance
                  ------     ------       --------
  bond distance:  H          O            0.977259
  bond distance:  H          O            0.977259


  Bond angles (degrees):
  ----------------------

                  atom 1     atom 2     atom 3         angle
                  ------     ------     ------         -----
  bond angle:     H          O          H            109.000




 Principal moments of inertia (u*A**2) and principal axes
 --------------------------------------------------------

   IA       0.576503          0.000000    1.000000    0.000000
   IB       1.275865          1.000000    0.000000    0.000000
   IC       1.852368          0.000000    0.000000    1.000000


 Rotational constants
 --------------------

@    The molecule is planar.

               A                   B                   C

         876628.8169         396107.0071         272828.6660 MHz
           29.241190           13.212708            9.100585 cm-1


@  Nuclear repulsion energy :    8.996423008986 Hartree


                     .---------------------------------------.
                     | Starting in Integral Section (HERMIT) |
                     `---------------------------------------'



 ***************************************************************************************
 ****************** Output from **INTEGRALS input processing (HERMIT) ******************
 ***************************************************************************************



    *************************************************************************
    ****************** Output from HERMIT input processing ******************
    *************************************************************************


 Default print level:        1

 Calculation of one- and two-electron Hamiltonian integrals.

 The following one-electron property integrals are calculated as requested:
          - overlap integrals
          - dipole length integrals

 Center of mass  (bohr):      0.075566958928      0.000000000000      0.000000000000
 Operator center (bohr):      0.000000000000      0.000000000000      0.000000000000
 Gauge origin    (bohr):      0.000000000000      0.000000000000      0.000000000000
 Dipole origin   (bohr):      0.000000000000      0.000000000000      0.000000000000

Calculation of 2-electron integrals are postponed until they are needed.


     ************************************************************************
     ************************** Output from HERINT **************************
     ************************************************************************



                      Nuclear contribution to dipole moments
                      --------------------------------------

                 au               Debye          C m (/(10**-30)

      x     -0.18897261        -0.48032044        -1.60217653
      y      0.00000000         0.00000000         0.00000000
      z      0.00000000         0.00000000         0.00000000


  Total CPU  time used in HERMIT:   0.01 seconds
  Total wall time used in HERMIT:   0.03 seconds


                        .----------------------------------.
                        | End of Integral Section (HERMIT) |
                        `----------------------------------'



                   .--------------------------------------------.
                   | Starting in Wave Function Section (SIRIUS) |
                   `--------------------------------------------'


     WARNING  Reference state is required for CI response and CI-NO
     WARNING  ".STATE" was not specified for "*CI INPUT",
     WARNING  the reference state is set to be state no.  1

 *** Output from Huckel module :

     Using EWMO model:          T
     Using EHT  model:          F
     Number of Huckel orbitals each symmetry:    7

 EWMO - Energy Weighted Maximum Overlap - is a Huckel type method,
        which normally is better than Extended Huckel Theory.
 Reference: Linderberg and Ohrn, Propagators in Quantum Chemistry (Wiley, 1973)

 Huckel EWMO eigenvalues for symmetry :  1
          -20.684655      -1.594745      -0.787122      -0.682665      -0.616200
           -0.240931      -0.173582

 **********************************************************************
 *SIRIUS* a direct, restricted step, second order MCSCF program       *
 **********************************************************************

 
     Date and time (Linux)  : Tue Jul  7 15:27:04 2026
     Host name              : n-62-31-21                              

 Title lines from ".mol" input file:
     test VQE
     dalton test

 Print level on unit LUPRI =   2 is   0
 Print level on unit LUW4  =   2 is   5

@    Configuration interaction calculation.

@    CI response calculation.

@    CI type: user specified active spaces.
@              Type: complete active space calculation (CAS).

@    This is a combination run starting with
@              a restricted, closed shell Hartree-Fock calculation


 Initial molecular orbitals are obtained according to
 ".MOSTART EWMO  " input option

     Wave function specification
     ============================
@    Wave function type        --- CI ---
@    Number of closed shell electrons           4
@    Number of electrons in active shells       6
@    Total charge of the molecule               0

@    Spin multiplicity and 2 M_S                1         0
@    Total number of symmetries                 1 (point group: C1 )
@    Reference state symmetry                   1 (irrep name : A  )

     Orbital specifications
     ======================
@    Abelian symmetry species          All |    1
@                                          |  A  
                                       --- |  ---
@    Inactive orbitals                   2 |    2
@    Active orbitals                     5 |    5
@    Secondary orbitals                 17 |   17
@    Total number of orbitals           24 |   24
@    Number of basis functions          24 |   24

      -- Initial occupation of symmetries is determined from user input.                      
      -- Initial occupation of symmetries is :
@    Occupied SCF orbitals               5 |    5

     Optimization information
     ========================
@    Number of configurations                50
@    Number of orbital rotations              0
     ------------------------------------------
@    Total number of variables               50

     Maximum number of CI iterations         25
     Threshold for CI convergence      1.00D-05
     Number of CI roots to converge           1

@    Reference state in CI response calculation :       1


 ***********************************************
 ***** DIIS acceleration of SCF iterations *****
 ***********************************************

 C1-DIIS algorithm; max error vectors =    8

 Iter      Total energy        Error norm    Delta(E)  DIIS dim.
 -----------------------------------------------------------------------------

Calculating AOSUPINT

---> (Re)generating AOTWOINT


     ************************************************************************
     ************************** Output from HERINT **************************
     ************************************************************************


 Threshold for neglecting two-electron integrals:  1.00D-12
 HERMIT - Number of two-electron integrals written:       21669 ( 48.0% )
 HERMIT - Megabytes written:                              0.275

     (Precalculated AO two-electron integrals are transformed to P-supermatrix elements.
      Threshold for discarding integrals :  1.00D-12 )

@  1    -75.8627126477        1.56431D+00   -7.59D+01    1
      Virial theorem: -V/T =      2.000620
@    MULPOP   O      -0.55; H       0.28; H       0.28; 
   1  Level shift: doubly occupied orbital energies shifted by -2.00D-01
 -----------------------------------------------------------------------------
@  2    -76.0150619074        3.29776D-01   -1.52D-01    2
      Virial theorem: -V/T =      2.002979
@    MULPOP   O      -0.30; H       0.15; H       0.15; 
   2  Level shift: doubly occupied orbital energies shifted by -5.00D-02
 -----------------------------------------------------------------------------
@  3    -76.0236024771        8.11320D-02   -8.54D-03    3
      Virial theorem: -V/T =      2.001227
@    MULPOP   O      -0.32; H       0.16; H       0.16; 
   3  Level shift: doubly occupied orbital energies shifted by -1.25D-02
 -----------------------------------------------------------------------------
@  4    -76.0242788312        2.22459D-02   -6.76D-04    4
      Virial theorem: -V/T =      2.001861
@    MULPOP   O      -0.33; H       0.17; H       0.17; 
 -----------------------------------------------------------------------------
@  5    -76.0243118595        7.33271D-03   -3.30D-05    5
      Virial theorem: -V/T =      2.001410
@    MULPOP   O      -0.34; H       0.17; H       0.17; 
 -----------------------------------------------------------------------------
@  6    -76.0243170498        1.48247D-03   -5.19D-06    6
      Virial theorem: -V/T =      2.001521
@    MULPOP   O      -0.34; H       0.17; H       0.17; 
 -----------------------------------------------------------------------------
@  7    -76.0243174538        2.14252D-04   -4.04D-07    7
      Virial theorem: -V/T =      2.001537
@    MULPOP   O      -0.34; H       0.17; H       0.17; 
 -----------------------------------------------------------------------------
@  8    -76.0243174619        3.53744D-05   -8.10D-09    8
      Virial theorem: -V/T =      2.001537
@    MULPOP   O      -0.34; H       0.17; H       0.17; 
 -----------------------------------------------------------------------------
@  9    -76.0243174621        6.02110D-06   -1.72D-10    8
      Virial theorem: -V/T =      2.001537
@    MULPOP   O      -0.34; H       0.17; H       0.17; 
 -----------------------------------------------------------------------------
@ 10    -76.0243174621        4.44866D-07   -4.52D-12    8
      Virial theorem: -V/T =      2.001537
@    MULPOP   O      -0.34; H       0.17; H       0.17; 
 -----------------------------------------------------------------------------
@ 11    -76.0243174621        6.76643D-08   -2.84D-14    8
      Virial theorem: -V/T =      2.001537
@    MULPOP   O      -0.34; H       0.17; H       0.17; 
 -----------------------------------------------------------------------------
@ 12    -76.0243174621        8.15212D-09   -2.84D-14    8
      Virial theorem: -V/T =      2.001537
@    MULPOP   O      -0.34; H       0.17; H       0.17; 
 -----------------------------------------------------------------------------
@ 13    -76.0243174621        1.25990D-09    5.68D-14    8
      Virial theorem: -V/T =      2.001537
@    MULPOP   O      -0.34; H       0.17; H       0.17; 
 -----------------------------------------------------------------------------
@ 14    -76.0243174621        1.44304D-10   -2.84D-14    8
      Virial theorem: -V/T =      2.001537
@    MULPOP   O      -0.34; H       0.17; H       0.17; 
 -----------------------------------------------------------------------------
@ 15    -76.0243174621        2.47463D-11    2.84D-14    8

@ *** DIIS converged in  15 iterations !
@     Converged SCF energy, gradient:    -76.024317462073    2.47D-11
    - total time used in SIRFCK :              0.00 seconds

 --- Writing SIRIFC interface file

--------------------------------------------------------------------------------


     .--------------------------------------------------.
     | HF-SCF KT IPs [a.u. & eV] from Koopmans' theorem |
     `--------------------------------------------------'


     HF-SCF KT symmetry 1 ( A  ) in point group C1  -- 5 principal poles with pole strength 1

   ============  ============  ============  ============  ============
      20.551252      1.323334      0.696600      0.553795      0.490020
     559.228027     36.009753     18.955463     15.069519     13.334117
   ============  ============  ============  ============  ============

@ Summary of HF-SCF KT ionization potentials [eV]:

@ Symmetry 1 (A  ) :   559.228      36.010      18.955      15.070      13.334

  === End of HF-SCF KT output ===
--------------------------------------------------------------------------------


 CPU and wall time for SCF :       0.114       0.612


 ----- Output from SIRIUS CI module (CICTL) -----




 2-el. integral transformation level 0: Total CPU and WALL times (sec)       0.015       0.042

 (CIST1) 8 lowest diagonal elements:

 Element no. Config.no.    Active energy      Total energy

         1 :          1    -12.9121457410    -76.0243174621
         2 :         11    -12.5768796314    -75.6890513525
         3 :         14    -12.4969887432    -75.6091604643
         4 :         12    -12.4936884178    -75.6058601389
         5 :         15    -12.4211314740    -75.5333031951
         6 :         17    -12.3709435082    -75.4831152293
         7 :         18    -12.2602668690    -75.3724385901
         8 :         20    -11.8908754398    -75.0030471609

Lowest 1 elements are used as separate start CI vectors.


 Convergence threshold for CI optimization :     0.00001000


 CI root     eigenvalue        residual norm

    1      -76.0243174621        0.0739423433

 CI root     eigenvalue        residual norm

    1      -76.0280073620        0.0149102456

 CI root     eigenvalue        residual norm

    1      -76.0281795423        0.0023115216

 CI root     eigenvalue        residual norm

    1      -76.0281828088        0.0003499691

 CI root     eigenvalue        residual norm

    1      -76.0281829009        0.0000432595

 CI root     eigenvalue        residual norm

    1      -76.0281829019        0.0000049684 converged

 The requested root number is now converged.


 *** CI converged in  6 iterations.



@ Final CI energies and residuals in symmetry 1 (irrep A  )
@    1      -76.028182901909290       4.97D-06

 Writing SIRIFC interface file for CI root no. 1

 CPU and wall time for CI :       0.025       0.143


                       .-----------------------------------.
                       | --- Final results from SIRIUS --- |
                       `-----------------------------------'


@    Spin multiplicity:           1
@    Spatial symmetry:            1 ( irrep  A   in C1  )
@    Total charge of molecule:    0

@    This was a CI calculation.
@    State number:                1

@    Final CI energy:             -76.028182901909
@    Nuclear repulsion:             8.996423008986
@    Electronic energy:           -85.024605910895

@    Final gradient norm:           0.000004968410

 
     Date and time (Linux)  : Tue Jul  7 15:27:05 2026
     Host name              : n-62-31-21                              

 Occupancies of natural orbitals
 -------------------------------

 Symmetry 1  ( A  ) -- Total occupation in this symmetry is  10.000000000

   2.000000000   2.000000000   1.996439324   1.998166088   1.999767571
   0.002269842   0.003357175

  Effective numbers of unpaired electrons this symmetry Eqs. 1) and 2):  0.02  0.00

  Total effective number of unpaired electrons :
  Eq. 1) sum(i) [(2 - n_i) n_i]    =  0.0225
  Eq. 2) sum(i) [(2 - n_i) n_i]**2 =  0.0001
 (Reference: M. Head-Gordon, Chemical Physics Letters 372 (2003) 508-511)

  --- NOTE THAT THE OCCUPATION NUMBERS ARE FOR ANALYSIS PURPOSE ONLY
  --- The orbital coefficients have NOT been transformed
  --- to ordered natural orbitals.

File label for MO orbitals:   7Jul26    CIORB  

 (Only coefficients > 0.0100 are printed.)

 Molecular orbitals for symmetry species 1  (A  )
 ------------------------------------------------

    Orbital         1        2        3        4        5        6        7
   1 O   :1s    -1.0004   0.0079   0.0000   0.0019   0.0000   0.0521   0.0000
   2 O   :1s    -0.0021  -0.8751   0.0000  -0.2817   0.0000  -0.1485   0.0000
   3 O   :1s     0.0014   0.1081  -0.0000  -0.1687   0.0000  -0.9072   0.0000
   4 O   :2px    0.0024   0.1042  -0.0000  -0.8002   0.0000   0.2808  -0.0000
   5 O   :2py    0.0000  -0.0000  -0.7065   0.0000   0.0000  -0.0000  -0.4179
   6 O   :2pz   -0.0000  -0.0000  -0.0000  -0.0000  -0.9197  -0.0000   0.0000
   7 O   :2px   -0.0017  -0.0566  -0.0000  -0.0111   0.0000   0.2050  -0.0000
   8 O   :2py   -0.0000   0.0000   0.1051  -0.0000  -0.0000   0.0000  -0.4833
   9 O   :2pz   -0.0000  -0.0000  -0.0000  -0.0000  -0.0739  -0.0000   0.0000
  10 O   :3d2-  -0.0000   0.0000   0.0253  -0.0000   0.0000   0.0000   0.0201
  12 O   :3d0    0.0001   0.0031  -0.0000  -0.0127   0.0000   0.0110  -0.0000
  13 O   :3d1+   0.0000   0.0000   0.0000   0.0000   0.0175   0.0000  -0.0000
  14 O   :3d2+   0.0001   0.0010   0.0000   0.0124  -0.0000  -0.0009   0.0000
  15 H   :1s     0.0002  -0.3116  -0.5557   0.3387   0.0000   0.1175   0.0460
  16 H   :1s    -0.0006   0.1452   0.1882  -0.1252  -0.0000   0.7646   1.3642
  17 H   :2px    0.0004  -0.0182  -0.0313  -0.0085   0.0000   0.0151   0.0154
  18 H   :2py   -0.0005   0.0368   0.0254  -0.0303  -0.0000  -0.0161  -0.0202
  19 H   :2pz    0.0000   0.0000   0.0000   0.0000  -0.0300   0.0000  -0.0000
  20 H   :1s     0.0002  -0.3116   0.5557   0.3387  -0.0000   0.1175  -0.0460
  21 H   :1s    -0.0006   0.1452  -0.1882  -0.1252  -0.0000   0.7646  -1.3642
  22 H   :2px    0.0004  -0.0182   0.0313  -0.0085  -0.0000   0.0151  -0.0154
  23 H   :2py    0.0005  -0.0368   0.0254   0.0303  -0.0000   0.0161  -0.0202
  24 H   :2pz    0.0000   0.0000   0.0000   0.0000  -0.0300   0.0000  -0.0000

    Orbital         8        9       10       11       12       13       14
   1 O   :1s     0.0000   0.0608  -0.0081   0.0000   0.0000   0.0000  -0.2517
   2 O   :1s     0.0000   0.4803   0.1567   0.0000   0.0000   0.0000  -1.2471
   3 O   :1s     0.0000  -0.5323   0.6282   0.0000  -0.0000  -0.0000   1.4455
   4 O   :2px   -0.0000  -0.4242   1.1435   0.0000  -0.0000   0.0000  -0.2494
   5 O   :2py    0.4206  -0.0000  -0.0000   0.0000  -1.0565   0.0000   0.0000
   6 O   :2pz   -0.0000  -0.0000   0.0000  -1.4102   0.0000  -0.0000   0.0000
   7 O   :2px   -0.0000   0.1437  -1.7544   0.0000   0.0000   0.0000   0.7936
   8 O   :2py    0.2256   0.0000   0.0000  -0.0000   2.2439  -0.0000   0.0000
   9 O   :2pz   -0.0000  -0.0000   0.0000   1.6596   0.0000   0.0000   0.0000
  10 O   :3d2-   0.1101  -0.0000  -0.0000   0.0000  -0.0350  -0.0000  -0.0000
  11 O   :3d1-   0.0000   0.0000  -0.0000  -0.0000   0.0000  -0.1329  -0.0000
  12 O   :3d0   -0.0000   0.0865  -0.0067   0.0000  -0.0000  -0.0000  -0.0534
  14 O   :3d2+   0.0000   0.0606   0.0104  -0.0000   0.0000   0.0000   0.1102
  15 H   :1s    -1.5992  -1.4130  -0.7892   0.0000  -0.6607   0.0000   0.4464
  16 H   :1s     1.5007   1.2648   0.2614  -0.0000  -0.4474  -0.0000  -0.4583
  17 H   :2px    0.1584   0.0335  -0.2521   0.0000  -0.1453  -0.0000  -0.5629
  18 H   :2py   -0.0703  -0.2685   0.1062  -0.0000   0.3311  -0.0000  -0.2800
  19 H   :2pz    0.0000   0.0000  -0.0000   0.0262  -0.0000  -0.6808  -0.0000
  20 H   :1s     1.5992  -1.4130  -0.7892  -0.0000   0.6607  -0.0000   0.4464
  21 H   :1s    -1.5007   1.2648   0.2614  -0.0000   0.4474  -0.0000  -0.4583
  22 H   :2px   -0.1584   0.0335  -0.2521  -0.0000   0.1453   0.0000  -0.5629
  23 H   :2py   -0.0703   0.2685  -0.1062  -0.0000   0.3311   0.0000   0.2800
  24 H   :2pz    0.0000   0.0000  -0.0000   0.0262  -0.0000   0.6808  -0.0000

    Orbital        15       16       17
   1 O   :1s     0.0000  -0.7182   0.0000
   2 O   :1s     0.0000  -3.1100   0.0000
   3 O   :1s     0.0000   4.6847  -0.0000
   4 O   :2px    0.0000  -0.0835  -0.0000
   5 O   :2py    0.0000  -0.0000  -0.1371
   6 O   :2pz    0.0234  -0.0000   0.0000
   7 O   :2px    0.0000  -0.9163  -0.0000
   8 O   :2py   -0.0000   0.0000   1.0554
   9 O   :2pz   -0.6582  -0.0000   0.0000
  10 O   :3d2-   0.0000   0.0000   0.0240
  12 O   :3d0    0.0000   0.1528  -0.0000
  13 O   :3d1+  -0.1615   0.0000  -0.0000
  14 O   :3d2+  -0.0000  -0.0557   0.0000
  15 H   :1s     0.0000  -1.3162  -0.7340
  16 H   :1s    -0.0000   0.2849   0.2615
  17 H   :2px    0.0000   0.0988  -0.6795
  18 H   :2py   -0.0000   0.3910  -0.4423
  19 H   :2pz    0.7689   0.0000  -0.0000
  20 H   :1s    -0.0000  -1.3162   0.7340
  21 H   :1s    -0.0000   0.2849  -0.2615
  22 H   :2px   -0.0000   0.0988   0.6795
  23 H   :2py   -0.0000  -0.3910  -0.4423
  24 H   :2pz    0.7689   0.0000  -0.0000

 Printout of CI-coefficients abs greater than 0.05000 for root  1
 *** NOTE: this root is the CI reference state ***

 Printout of coefficients in interval  3.1623E-01 to  1.0000E+00
 ===============================================================

  Coefficient of CSF no.         1 is      0.99850501    9.98505008E-01
  Orbital          1   2   3
  Spin coupling    2   2   2

 Printout of coefficients in interval  1.0000E-01 to  3.1623E-01
 ===============================================================
   ( no coefficients )

 Printout of coefficients in interval  5.0000E-02 to  1.0000E-01
 ===============================================================
   ( no coefficients )

 Norm of printed CI vector ..      0.99701225

 Magnitude of CI coefficients
 ============================
 ( Ranges are relative to norm of vector :  1.00E+00 )

  10- 1 to 10- 0         1    0.99701225E+00      0.9970122504
  10- 2 to 10- 1         7    0.28128056E-02      0.9998250560
  10- 3 to 10- 2         5    0.17373452E-03      0.9999987905
  10- 4 to 10- 3         4    0.12016311E-05      0.9999999921
  10- 5 to 10- 4         1    0.78787762E-08      1.0000000000
  Number of coefficients less than 10^-11 times norm is           32

  Total CPU  time used in SIRIUS :   0.16 seconds
  Total wall time used in SIRIUS :   0.84 seconds

 
     Date and time (Linux)  : Tue Jul  7 15:27:05 2026
     Host name              : n-62-31-21                              


                     .---------------------------------------.
                     | End of Wave Function Section (SIRIUS) |
                     `---------------------------------------'



                 .------------------------------------------------.
                 | Starting in Dynamic Property Section (RESPONS) |
                 `------------------------------------------------'


 ----------------------------------------------------------------------------------------
  RESPONSE  -  an MCSCF, MC-srDFT, DFT, SOPPA and SOPPA-srDFT response property program
 ----------------------------------------------------------------------------------------

 This is a configuration interaction response calculation.
   Note: this is equivalent to a CI sum-over-states calculation of response properties.


 -------- OUTPUT FROM RESPONSE INPUT PROCESSING --------




  Linear Response single residue calculation
 -------------------------------------------


    4 input options by user.

 Print level                                    : IPRPP  =   2
 Maximum number of iterations for eigenval.eqs. : MAXITP =  60
 Threshold for convergence of eigenvalue eqs.   : THCPP  = 1.000D-03
 Maximum iterations in optimal orbital algorithm: MAXITO =   5

    300 Excitation energies are calculated for symmetry no.    1

      3 property residues are calculated with labels:

               XDIPLEN 
               YDIPLEN 
               ZDIPLEN 

 Old direct access AO file found, SORTA skipped.

 2-el. integral transformation level 4: Total CPU and WALL times (sec)       0.018       0.069


 CI energy            :      -76.028182901909290
 -- inactive part     :      -63.112171721098143
 --   active part     :      -12.916011180811147
 -- nuclear repulsion :        8.996423008985666


                         *******************************
                         *** CI response calculation ***
                         *******************************

 ----------------------------------------------------------------
 ----- Linear response calculation
 ----- Symmetry of excitation/property operator(s)    1  ( A  )
 ----------------------------------------------------------------

 Number of excitations of this symmetry          300
 Number of response properties of this symmetry    0
 Number of C6/C8 properties of this symmetry       0


 Perturbation symmetry.     KSYMOP:           1
 Perturbation spin symmetry.TRPLET:           F
 Orbital variables.         KZWOPT:           0
 Configuration variables.   KZCONF:          50
 Total number of variables. KZVAR :          50

 ** RSPVAR ** Number of PP start vectors  300
   exceeds the maximum number of variables   49
   Number of start vectors reset to number of variables



 --- EXCITATION ENERGIES AND TRANSITION MOMENT CALCULATION (MCTDHF) ---

 Operator symmetry = 1  ( A  ); triplet =   F

RSPORT:    1 out of   50 new trial vectors linear dependent

 ** RSPCTL MICROITERATION NUMBER    1

      Root  Residual tot.,    conf., and orb.    Bnorm      Eigenvalue
      ----------------------------------------------------------------
         1    2.72645D-15  2.73D-15  0.00D+00  1.00D+00    3.26851D-01
         2    1.68973D-15  1.69D-15  0.00D+00  1.00D+00    4.05398D-01
         3    2.91879D-15  2.92D-15  0.00D+00  1.00D+00    4.12726D-01
         4    2.18027D-15  2.18D-15  0.00D+00  1.00D+00    4.86128D-01
         5    2.51461D-15  2.51D-15  0.00D+00  1.00D+00    5.48890D-01
         6    2.61727D-15  2.62D-15  0.00D+00  1.00D+00    6.83988D-01
         7    3.14616D-15  3.15D-15  0.00D+00  1.00D+00    9.36834D-01
         8    4.33881D-15  4.34D-15  0.00D+00  1.00D+00    9.83619D-01
         9    3.51504D-15  3.52D-15  0.00D+00  1.00D+00    9.85459D-01
        10    2.59710D-15  2.60D-15  0.00D+00  1.00D+00    1.06989D+00
        11    2.98535D-15  2.99D-15  0.00D+00  1.00D+00    1.09116D+00
        12    3.83650D-15  3.84D-15  0.00D+00  1.00D+00    1.11880D+00
        13    3.58410D-15  3.58D-15  0.00D+00  1.00D+00    1.14782D+00
        14    3.48869D-15  3.49D-15  0.00D+00  1.00D+00    1.16124D+00
        15    3.34655D-15  3.35D-15  0.00D+00  1.00D+00    1.19030D+00
        16    2.01135D-15  2.01D-15  0.00D+00  1.00D+00    1.20410D+00
        17    4.83129D-15  4.83D-15  0.00D+00  1.00D+00    1.22775D+00
        18    3.23309D-15  3.23D-15  0.00D+00  1.00D+00    1.25893D+00
        19    2.73244D-15  2.73D-15  0.00D+00  1.00D+00    1.30517D+00
        20    4.49119D-15  4.49D-15  0.00D+00  1.00D+00    1.30694D+00
        21    3.62954D-15  3.63D-15  0.00D+00  1.00D+00    1.31212D+00
        22    3.08357D-15  3.08D-15  0.00D+00  1.00D+00    1.35374D+00
        23    3.38380D-15  3.38D-15  0.00D+00  1.00D+00    1.36357D+00
        24    3.98068D-15  3.98D-15  0.00D+00  1.00D+00    1.39689D+00
        25    4.72512D-15  4.73D-15  0.00D+00  1.00D+00    1.42744D+00
        26    3.98478D-15  3.98D-15  0.00D+00  1.00D+00    1.54376D+00
        27    4.12483D-15  4.12D-15  0.00D+00  1.00D+00    1.60944D+00
        28    9.63694D-15  9.64D-15  0.00D+00  1.00D+00    1.94333D+00
        29    9.78626D-15  9.79D-15  0.00D+00  1.00D+00    1.99702D+00
        30    4.71115D-15  4.71D-15  0.00D+00  1.00D+00    2.01538D+00
        31    6.69962D-15  6.70D-15  0.00D+00  1.00D+00    2.02044D+00
        32    9.42393D-15  9.42D-15  0.00D+00  1.00D+00    2.05856D+00
        33    3.35246D-15  3.35D-15  0.00D+00  1.00D+00    2.10700D+00
        34    6.86327D-15  6.86D-15  0.00D+00  1.00D+00    2.14946D+00
        35    3.60273D-15  3.60D-15  0.00D+00  1.00D+00    2.16238D+00
        36    6.97676D-15  6.98D-15  0.00D+00  1.00D+00    2.16644D+00
        37    3.80054D-15  3.80D-15  0.00D+00  1.00D+00    2.17202D+00
        38    4.42734D-15  4.43D-15  0.00D+00  1.00D+00    2.18659D+00
        39    8.23772D-15  8.24D-15  0.00D+00  1.00D+00    2.20654D+00
        40    5.59031D-15  5.59D-15  0.00D+00  1.00D+00    2.21420D+00
        41    9.76868D-15  9.77D-15  0.00D+00  1.00D+00    2.30688D+00
        42    6.17439D-15  6.17D-15  0.00D+00  1.00D+00    2.32548D+00
        43    4.56017D-15  4.56D-15  0.00D+00  1.00D+00    2.36883D+00
        44    7.62401D-15  7.62D-15  0.00D+00  1.00D+00    3.33313D+00
        45    5.44568D-15  5.45D-15  0.00D+00  1.00D+00    3.34030D+00
        46    4.98787D-15  4.99D-15  0.00D+00  1.00D+00    3.38285D+00
        47    1.40852D-14  1.41D-14  0.00D+00  1.00D+00    3.41776D+00
        48    9.65824D-15  9.66D-15  0.00D+00  1.00D+00    3.43477D+00
        49    1.04634D-14  1.05D-14  0.00D+00  1.00D+00    3.54675D+00
        50    2.72645D-15  2.73D-15  0.00D+00  1.00D+00   -3.26851D-01

 *** THE REQUESTED   49 SOLUTION VECTORS CONVERGED

 Convergence of RSP solution vectors, threshold = 1.00D-03
 ---------------------------------------------------------------
 (dimension of paired reduced space:   98)
 RSP solution vector no.    1; norm of residual   2.73D-15
 RSP solution vector no.    2; norm of residual   1.69D-15
 RSP solution vector no.    3; norm of residual   2.92D-15
 RSP solution vector no.    4; norm of residual   2.18D-15
 RSP solution vector no.    5; norm of residual   2.51D-15
 RSP solution vector no.    6; norm of residual   2.62D-15
 RSP solution vector no.    7; norm of residual   3.15D-15
 RSP solution vector no.    8; norm of residual   4.34D-15
 RSP solution vector no.    9; norm of residual   3.52D-15
 RSP solution vector no.   10; norm of residual   2.60D-15
 RSP solution vector no.   11; norm of residual   2.99D-15
 RSP solution vector no.   12; norm of residual   3.84D-15
 RSP solution vector no.   13; norm of residual   3.58D-15
 RSP solution vector no.   14; norm of residual   3.49D-15
 RSP solution vector no.   15; norm of residual   3.35D-15
 RSP solution vector no.   16; norm of residual   2.01D-15
 RSP solution vector no.   17; norm of residual   4.83D-15
 RSP solution vector no.   18; norm of residual   3.23D-15
 RSP solution vector no.   19; norm of residual   2.73D-15
 RSP solution vector no.   20; norm of residual   4.49D-15
 RSP solution vector no.   21; norm of residual   3.63D-15
 RSP solution vector no.   22; norm of residual   3.08D-15
 RSP solution vector no.   23; norm of residual   3.38D-15
 RSP solution vector no.   24; norm of residual   3.98D-15
 RSP solution vector no.   25; norm of residual   4.73D-15
 RSP solution vector no.   26; norm of residual   3.98D-15
 RSP solution vector no.   27; norm of residual   4.12D-15
 RSP solution vector no.   28; norm of residual   9.64D-15
 RSP solution vector no.   29; norm of residual   9.79D-15
 RSP solution vector no.   30; norm of residual   4.71D-15
 RSP solution vector no.   31; norm of residual   6.70D-15
 RSP solution vector no.   32; norm of residual   9.42D-15
 RSP solution vector no.   33; norm of residual   3.35D-15
 RSP solution vector no.   34; norm of residual   6.86D-15
 RSP solution vector no.   35; norm of residual   3.60D-15
 RSP solution vector no.   36; norm of residual   6.98D-15
 RSP solution vector no.   37; norm of residual   3.80D-15
 RSP solution vector no.   38; norm of residual   4.43D-15
 RSP solution vector no.   39; norm of residual   8.24D-15
 RSP solution vector no.   40; norm of residual   5.59D-15
 RSP solution vector no.   41; norm of residual   9.77D-15
 RSP solution vector no.   42; norm of residual   6.17D-15
 RSP solution vector no.   43; norm of residual   4.56D-15
 RSP solution vector no.   44; norm of residual   7.62D-15
 RSP solution vector no.   45; norm of residual   5.45D-15
 RSP solution vector no.   46; norm of residual   4.99D-15
 RSP solution vector no.   47; norm of residual   1.41D-14
 RSP solution vector no.   48; norm of residual   9.66D-15
 RSP solution vector no.   49; norm of residual   1.05D-14

 *** RSPCTL MICROITERATIONS CONVERGED

@ Singlet transition operator label: XDIPLEN 
@ STATE NO:    1 *TRANSITION MOMENT: -5.30499026E-15 *ENERGY(eV):   8.8940616    
@ STATE NO:    2 *TRANSITION MOMENT:  3.26284373E-14 *ENERGY(eV):   11.031431    
@ STATE NO:    3 *TRANSITION MOMENT:  0.61317680     *ENERGY(eV):   11.230847    
@ STATE NO:    4 *TRANSITION MOMENT: -2.32543055E-14 *ENERGY(eV):   13.228210    
@ STATE NO:    5 *TRANSITION MOMENT: -6.97262918E-15 *ENERGY(eV):   14.936053    
@ STATE NO:    6 *TRANSITION MOMENT:  0.53569094     *ENERGY(eV):   18.612252    
@ STATE NO:    7 *TRANSITION MOMENT:  3.97222793E-02 *ENERGY(eV):   25.492540    
@ STATE NO:    8 *TRANSITION MOMENT: -1.57956591E-15 *ENERGY(eV):   26.765638    
@ STATE NO:    9 *TRANSITION MOMENT: -1.91531729E-15 *ENERGY(eV):   26.815694    
@ STATE NO:   10 *TRANSITION MOMENT:  2.11416782E-16 *ENERGY(eV):   29.113247    
@ STATE NO:   11 *TRANSITION MOMENT:  5.12475642E-03 *ENERGY(eV):   29.691882    
@ STATE NO:   12 *TRANSITION MOMENT: -1.74875851E-16 *ENERGY(eV):   30.444071    
@ STATE NO:   13 *TRANSITION MOMENT:  5.51610102E-16 *ENERGY(eV):   31.233689    
@ STATE NO:   14 *TRANSITION MOMENT: -7.67247294E-17 *ENERGY(eV):   31.599064    
@ STATE NO:   15 *TRANSITION MOMENT:  4.90706869E-02 *ENERGY(eV):   32.389681    

@ Singlet transition operator label: YDIPLEN 
@ STATE NO:    1 *TRANSITION MOMENT: -2.10891579E-14 *ENERGY(eV):   8.8940616    
@ STATE NO:    2 *TRANSITION MOMENT: -1.80511603E-14 *ENERGY(eV):   11.031431    
@ STATE NO:    3 *TRANSITION MOMENT: -5.21792858E-15 *ENERGY(eV):   11.230847    
@ STATE NO:    4 *TRANSITION MOMENT: -0.65993753     *ENERGY(eV):   13.228210    
@ STATE NO:    5 *TRANSITION MOMENT:  0.91347914     *ENERGY(eV):   14.936053    
@ STATE NO:    6 *TRANSITION MOMENT:  2.41133045E-14 *ENERGY(eV):   18.612252    
@ STATE NO:    7 *TRANSITION MOMENT:  1.13991686E-15 *ENERGY(eV):   25.492540    
@ STATE NO:    8 *TRANSITION MOMENT:  4.38174120E-16 *ENERGY(eV):   26.765638    
@ STATE NO:    9 *TRANSITION MOMENT:  7.83423628E-16 *ENERGY(eV):   26.815694    
@ STATE NO:   10 *TRANSITION MOMENT:  7.11841094E-16 *ENERGY(eV):   29.113247    
@ STATE NO:   11 *TRANSITION MOMENT: -1.45667449E-15 *ENERGY(eV):   29.691882    
@ STATE NO:   12 *TRANSITION MOMENT:  6.45260977E-16 *ENERGY(eV):   30.444071    
@ STATE NO:   13 *TRANSITION MOMENT:  3.72477119E-03 *ENERGY(eV):   31.233689    
@ STATE NO:   14 *TRANSITION MOMENT:  3.08541172E-02 *ENERGY(eV):   31.599064    
@ STATE NO:   15 *TRANSITION MOMENT: -1.12396185E-15 *ENERGY(eV):   32.389681    

@ Singlet transition operator label: ZDIPLEN 
@ STATE NO:    1 *TRANSITION MOMENT: -0.34021454     *ENERGY(eV):   8.8940616    
@ STATE NO:    2 *TRANSITION MOMENT: -8.32960082E-17 *ENERGY(eV):   11.031431    
@ STATE NO:    3 *TRANSITION MOMENT:  4.42504265E-15 *ENERGY(eV):   11.230847    
@ STATE NO:    4 *TRANSITION MOMENT: -2.37259072E-15 *ENERGY(eV):   13.228210    
@ STATE NO:    5 *TRANSITION MOMENT:  2.40526316E-15 *ENERGY(eV):   14.936053    
@ STATE NO:    6 *TRANSITION MOMENT:  6.71778968E-16 *ENERGY(eV):   18.612252    
@ STATE NO:    7 *TRANSITION MOMENT: -1.41812889E-15 *ENERGY(eV):   25.492540    
@ STATE NO:    8 *TRANSITION MOMENT: -1.63220601E-02 *ENERGY(eV):   26.765638    
@ STATE NO:    9 *TRANSITION MOMENT:  6.93491328E-15 *ENERGY(eV):   26.815694    
@ STATE NO:   10 *TRANSITION MOMENT:  2.57623333E-16 *ENERGY(eV):   29.113247    
@ STATE NO:   11 *TRANSITION MOMENT:  2.54666391E-16 *ENERGY(eV):   29.691882    
@ STATE NO:   12 *TRANSITION MOMENT: -3.18141874E-02 *ENERGY(eV):   30.444071    
@ STATE NO:   13 *TRANSITION MOMENT: -8.14699678E-16 *ENERGY(eV):   31.233689    
@ STATE NO:   14 *TRANSITION MOMENT: -1.87046963E-15 *ENERGY(eV):   31.599064    
@ STATE NO:   15 *TRANSITION MOMENT:  5.54174454E-16 *ENERGY(eV):   32.389681    


 **************************************************************************************
 *** @ Excit. operator sym 1 & ref. state sym 1 => excited state symmetry 1  ( A  ) ***
 **************************************************************************************



 @ Excited state no:    1 in symmetry 1  ( A  ) - singlet excitation
 -------------------------------------------------------------------

@ Excitation energy :  0.32685076     au
@                       8.8940616     eV;   71735.449     cm-1;   858.14654     kJ / mol

@ Total energy :       -75.701332     au

@ Operator label: XDIPLEN ; Transition moment : -5.30499026E-15 au
@ Oscillator strength (LENGTH)   :  6.13235687E-30  (X-polarization)

@ Operator label: YDIPLEN ; Transition moment : -2.10891579E-14 au
@ Oscillator strength (LENGTH)   :  9.69118124E-29  (Y-polarization)

@ Operator label: ZDIPLEN ; Transition moment : -0.34021454     au
@ Oscillator strength (LENGTH)   :  2.52210979E-02  (Z-polarization)
@ Total oscillator strength (LENGTH)   :  2.52210979E-02

 Eigenvector for state no.  1

      Index(conf)                         Z operator          Y operator
      ----------                      --------------      --------------
          11                            0.9875493185        0.0000000000
          44                           -0.1025165521        0.0000000000

       48 elements with absolute value ≤ 1.00D-01 are not printed.

 Printout of coefficients in interval  3.1623E-01 to  1.0000E+00
 ===============================================================

  Coefficient of CSF no.        11 is      0.98754932    9.87549319E-01
  Orbital          1   2   3   4
  Spin coupling    2   2   1  -1

 Printout of coefficients in interval  1.0000E-01 to  3.1623E-01
 ===============================================================

  Coefficient of CSF no.        44 is     -0.10251655   -1.02516552E-01
  Orbital          2   1   3   4   5
  Spin coupling    2   1  -1   1  -1

 Norm of printed CI vector ..      0.98576330

 Magnitude of CI coefficients
 ============================
 ( Ranges are relative to norm of vector :  1.00E+00 )

  10- 1 to 10- 0         2    0.98576330E+00      0.9857633000
  10- 2 to 10- 1         3    0.14040999E-01      0.9998042991
  10- 3 to 10- 2         5    0.19570089E-03      1.0000000000
  Number of coefficients less than 10^-11 times norm is           40


 @ Excited state no:    2 in symmetry 1  ( A  ) - singlet excitation
 -------------------------------------------------------------------

@ Excitation energy :  0.40539765     au
@                       11.031431     eV;   88974.500     cm-1;   1064.3714     kJ / mol

@ Total energy :       -75.622785     au

@ Operator label: XDIPLEN ; Transition moment :  3.26284373E-14 au
@ Oscillator strength (LENGTH)   :  2.87728261E-28  (X-polarization)

@ Operator label: YDIPLEN ; Transition moment : -1.80511603E-14 au
@ Oscillator strength (LENGTH)   :  8.80643674E-29  (Y-polarization)

@ Operator label: ZDIPLEN ; Transition moment : -8.32960082E-17 au
@ Oscillator strength (LENGTH)   :  1.87516009E-33  (Z-polarization)
@ Total oscillator strength (LENGTH)   :  3.75794503E-28

 Eigenvector for state no.  2

      Index(conf)                         Z operator          Y operator
      ----------                      --------------      --------------
          12                           -0.9872386672        0.0000000000
          32                            0.1229789581        0.0000000000

       48 elements with absolute value ≤ 1.00D-01 are not printed.

 Printout of coefficients in interval  3.1623E-01 to  1.0000E+00
 ===============================================================

  Coefficient of CSF no.        12 is     -0.98723867   -9.87238667E-01
  Orbital          1   2   3   5
  Spin coupling    2   2   1  -1

 Printout of coefficients in interval  1.0000E-01 to  3.1623E-01
 ===============================================================

  Coefficient of CSF no.        32 is      0.12297896    1.22978958E-01
  Orbital          2   5   1   3
  Spin coupling    2   2   1  -1

 Norm of printed CI vector ..      0.98976401

 Magnitude of CI coefficients
 ============================
 ( Ranges are relative to norm of vector :  1.00E+00 )

  10- 1 to 10- 0         2    0.98976401E+00      0.9897640102
  10- 2 to 10- 1         4    0.10134704E-01      0.9998987138
  10- 3 to 10- 2         4    0.10128615E-03      1.0000000000
  Number of coefficients less than 10^-11 times norm is           40


 @ Excited state no:    3 in symmetry 1  ( A  ) - singlet excitation
 -------------------------------------------------------------------

@ Excitation energy :  0.41272605     au
@                       11.230847     eV;   90582.896     cm-1;   1083.6121     kJ / mol

@ Total energy :       -75.615457     au

@ Operator label: XDIPLEN ; Transition moment :  0.61317680     au
@ Oscillator strength (LENGTH)   :  0.10345275      (X-polarization)

@ Operator label: YDIPLEN ; Transition moment : -5.21792858E-15 au
@ Oscillator strength (LENGTH)   :  7.49146716E-30  (Y-polarization)

@ Operator label: ZDIPLEN ; Transition moment :  4.42504265E-15 au
@ Oscillator strength (LENGTH)   :  5.38772651E-30  (Z-polarization)
@ Total oscillator strength (LENGTH)   :  0.10345275    

 Eigenvector for state no.  3

      Index(conf)                         Z operator          Y operator
      ----------                      --------------      --------------
          14                           -0.9835536841        0.0000000000

       49 elements with absolute value ≤ 1.00D-01 are not printed.

 Printout of coefficients in interval  3.1623E-01 to  1.0000E+00
 ===============================================================

  Coefficient of CSF no.        14 is     -0.98355368   -9.83553684E-01
  Orbital          1   3   2   4
  Spin coupling    2   2   1  -1

 Printout of coefficients in interval  1.0000E-01 to  3.1623E-01
 ===============================================================
   ( no coefficients )

 Norm of printed CI vector ..      0.96737785

 Magnitude of CI coefficients
 ============================
 ( Ranges are relative to norm of vector :  1.00E+00 )

  10- 1 to 10- 0         1    0.96737785E+00      0.9673778494
  10- 2 to 10- 1         9    0.32578432E-01      0.9999562813
  10- 3 to 10- 2         4    0.42485881E-04      0.9999987672
  10- 4 to 10- 3         4    0.12328481E-05      1.0000000000
  Number of coefficients less than 10^-11 times norm is           32


 @ Excited state no:    4 in symmetry 1  ( A  ) - singlet excitation
 -------------------------------------------------------------------

@ Excitation energy :  0.48612778     au
@                       13.228210     eV;   106692.71     cm-1;   1276.3283     kJ / mol

@ Total energy :       -75.542055     au

@ Operator label: XDIPLEN ; Transition moment : -2.32543055E-14 au
@ Oscillator strength (LENGTH)   :  1.75253189E-28  (X-polarization)

@ Operator label: YDIPLEN ; Transition moment : -0.65993753     au
@ Oscillator strength (LENGTH)   :  0.14114478      (Y-polarization)

@ Operator label: ZDIPLEN ; Transition moment : -2.37259072E-15 au
@ Oscillator strength (LENGTH)   :  1.82433603E-30  (Z-polarization)
@ Total oscillator strength (LENGTH)   :  0.14114478    

 Eigenvector for state no.  4

      Index(conf)                         Z operator          Y operator
      ----------                      --------------      --------------
          15                           -0.9861398380        0.0000000000
          35                            0.1143468753        0.0000000000

       48 elements with absolute value ≤ 1.00D-01 are not printed.

 Printout of coefficients in interval  3.1623E-01 to  1.0000E+00
 ===============================================================

  Coefficient of CSF no.        15 is     -0.98613984   -9.86139838E-01
  Orbital          1   3   2   5
  Spin coupling    2   2   1  -1

 Printout of coefficients in interval  1.0000E-01 to  3.1623E-01
 ===============================================================

  Coefficient of CSF no.        35 is      0.11434688    1.14346875E-01
  Orbital          3   5   1   2
  Spin coupling    2   2   1  -1

 Norm of printed CI vector ..      0.98554699

 Magnitude of CI coefficients
 ============================
 ( Ranges are relative to norm of vector :  1.00E+00 )

  10- 1 to 10- 0         2    0.98554699E+00      0.9855469880
  10- 2 to 10- 1         5    0.14382676E-01      0.9999296637
  10- 3 to 10- 2         3    0.69384254E-04      0.9999990480
  10- 4 to 10- 3         2    0.95201111E-06      1.0000000000
  Number of coefficients less than 10^-11 times norm is           38


 @ Excited state no:    5 in symmetry 1  ( A  ) - singlet excitation
 -------------------------------------------------------------------

@ Excitation energy :  0.54888985     au
@                       14.936053     eV;   120467.40     cm-1;   1441.1101     kJ / mol

@ Total energy :       -75.479293     au

@ Operator label: XDIPLEN ; Transition moment : -6.97262918E-15 au
@ Oscillator strength (LENGTH)   :  1.77904560E-29  (X-polarization)

@ Operator label: YDIPLEN ; Transition moment :  0.91347914     au
@ Oscillator strength (LENGTH)   :  0.30534528      (Y-polarization)

@ Operator label: ZDIPLEN ; Transition moment :  2.40526316E-15 au
@ Oscillator strength (LENGTH)   :  2.11699163E-30  (Z-polarization)
@ Total oscillator strength (LENGTH)   :  0.30534528    

 Eigenvector for state no.  5

      Index(conf)                         Z operator          Y operator
      ----------                      --------------      --------------
          17                           -0.9893983653        0.0000000000
          19                           -0.1232038440        0.0000000000

       48 elements with absolute value ≤ 1.00D-01 are not printed.

 Printout of coefficients in interval  3.1623E-01 to  1.0000E+00
 ===============================================================

  Coefficient of CSF no.        17 is     -0.98939837   -9.89398365E-01
  Orbital          2   3   1   4
  Spin coupling    2   2   1  -1

 Printout of coefficients in interval  1.0000E-01 to  3.1623E-01
 ===============================================================

  Coefficient of CSF no.        19 is     -0.12320384   -1.23203844E-01
  Orbital          2   3   4   5
  Spin coupling    2   2   1  -1

 Norm of printed CI vector ..      0.99408831

 Magnitude of CI coefficients
 ============================
 ( Ranges are relative to norm of vector :  1.00E+00 )

  10- 1 to 10- 0         2    0.99408831E+00      0.9940883125
  10- 2 to 10- 1         4    0.58276585E-02      0.9999159710
  10- 3 to 10- 2         4    0.83889731E-04      0.9999998607
  10- 4 to 10- 3         2    0.13928825E-06      1.0000000000
  Number of coefficients less than 10^-11 times norm is           38


 @ Excited state no:    6 in symmetry 1  ( A  ) - singlet excitation
 -------------------------------------------------------------------

@ Excitation energy :  0.68398769     au
@                       18.612252     eV;   150117.95     cm-1;   1795.8094     kJ / mol

@ Total energy :       -75.344195     au

@ Operator label: XDIPLEN ; Transition moment :  0.53569094     au
@ Oscillator strength (LENGTH)   :  0.13085359      (X-polarization)

@ Operator label: YDIPLEN ; Transition moment :  2.41133045E-14 au
@ Oscillator strength (LENGTH)   :  2.65137094E-28  (Y-polarization)

@ Operator label: ZDIPLEN ; Transition moment :  6.71778968E-16 au
@ Oscillator strength (LENGTH)   :  2.05783162E-31  (Z-polarization)
@ Total oscillator strength (LENGTH)   :  0.13085359    

 Eigenvector for state no.  6

      Index(conf)                         Z operator          Y operator
      ----------                      --------------      --------------
           7                            0.1382345283        0.0000000000
          18                            0.9829693183        0.0000000000

       48 elements with absolute value ≤ 1.00D-01 are not printed.

 Printout of coefficients in interval  3.1623E-01 to  1.0000E+00
 ===============================================================

  Coefficient of CSF no.        18 is      0.98296932    9.82969318E-01
  Orbital          2   3   1   5
  Spin coupling    2   2   1  -1

 Printout of coefficients in interval  1.0000E-01 to  3.1623E-01
 ===============================================================

  Coefficient of CSF no.         7 is      0.13823453    1.38234528E-01
  Orbital          2   3   5
  Spin coupling    2   2   2

 Printout of coefficients in interval  1.0000E-01 to  1.0000E-01
 ===============================================================
   ( no coefficients )

 Norm of printed CI vector ..      0.98533747

 Magnitude of CI coefficients
 ============================
 ( Ranges are relative to norm of vector :  1.00E+00 )

  10- 1 to 10- 0         2    0.98533747E+00      0.9853374655
  10- 2 to 10- 1         9    0.14499218E-01      0.9998366831
  10- 3 to 10- 2         5    0.16329776E-03      0.9999999808
  10- 4 to 10- 3         1    0.17075706E-07      0.9999999979
  10- 5 to 10- 4         1    0.21078019E-08      1.0000000000
  Number of coefficients less than 10^-11 times norm is           32


 @ Excited state no:    7 in symmetry 1  ( A  ) - singlet excitation
 -------------------------------------------------------------------

@ Excitation energy :  0.93683363     au
@                       25.492540     eV;   205611.21     cm-1;   2459.6563     kJ / mol

@ Total energy :       -75.091349     au

@ Operator label: XDIPLEN ; Transition moment :  3.97222793E-02 au
@ Oscillator strength (LENGTH)   :  9.85461213E-04  (X-polarization)

@ Operator label: YDIPLEN ; Transition moment :  1.13991686E-15 au
@ Oscillator strength (LENGTH)   :  8.11554274E-31  (Y-polarization)

@ Operator label: ZDIPLEN ; Transition moment : -1.41812889E-15 au
@ Oscillator strength (LENGTH)   :  1.25603754E-30  (Z-polarization)
@ Total oscillator strength (LENGTH)   :  9.85461213E-04

 Eigenvector for state no.  7

      Index(conf)                         Z operator          Y operator
      ----------                      --------------      --------------
           2                            0.8947376712        0.0000000000
           3                           -0.2229195074        0.0000000000
           5                           -0.2914546226        0.0000000000
          24                            0.2173785767        0.0000000000

       46 elements with absolute value ≤ 1.00D-01 are not printed.

 Printout of coefficients in interval  3.1623E-01 to  1.0000E+00
 ===============================================================

  Coefficient of CSF no.         2 is      0.89473767    8.94737671E-01
  Orbital          1   2   4
  Spin coupling    2   2   2

 Printout of coefficients in interval  1.0000E-01 to  3.1623E-01
 ===============================================================

  Coefficient of CSF no.         3 is     -0.22291951   -2.22919507E-01
  Orbital          1   3   4
  Spin coupling    2   2   2

  Coefficient of CSF no.         5 is     -0.29145462   -2.91454623E-01
  Orbital          1   2   5
  Spin coupling    2   2   2

  Coefficient of CSF no.        24 is      0.21737858    2.17378577E-01
  Orbital          2   4   1   5
  Spin coupling    2   2   1  -1

 Printout of coefficients in interval  1.0000E-01 to  1.0000E-01
 ===============================================================
   ( no coefficients )

 Norm of printed CI vector ..      0.98244785

 Magnitude of CI coefficients
 ============================
 ( Ranges are relative to norm of vector :  1.00E+00 )

  10- 1 to 10- 0         4    0.98244785E+00      0.9824478496
  10- 2 to 10- 1         9    0.17388175E-01      0.9998360245
  10- 3 to 10- 2         5    0.16397549E-03      1.0000000000
  Number of coefficients less than 10^-11 times norm is           32


 @ Excited state no:    8 in symmetry 1  ( A  ) - singlet excitation
 -------------------------------------------------------------------

@ Excitation energy :  0.98361912     au
@                       26.765638     eV;   215879.44     cm-1;   2582.4916     kJ / mol

@ Total energy :       -75.044564     au

@ Operator label: XDIPLEN ; Transition moment : -1.57956591E-15 au
@ Oscillator strength (LENGTH)   :  1.63610513E-30  (X-polarization)

@ Operator label: YDIPLEN ; Transition moment :  4.38174120E-16 au
@ Oscillator strength (LENGTH)   :  1.25900992E-31  (Y-polarization)

@ Operator label: ZDIPLEN ; Transition moment : -1.63220601E-02 au
@ Oscillator strength (LENGTH)   :  1.74697081E-04  (Z-polarization)
@ Total oscillator strength (LENGTH)   :  1.74697081E-04

 Eigenvector for state no.  8

      Index(conf)                         Z operator          Y operator
      ----------                      --------------      --------------
          20                           -0.9163324085        0.0000000000
          29                            0.3076511865        0.0000000000
          43                            0.1225931193        0.0000000000
          47                           -0.1888624321        0.0000000000

       46 elements with absolute value ≤ 1.00D-01 are not printed.

 Printout of coefficients in interval  3.1623E-01 to  1.0000E+00
 ===============================================================

  Coefficient of CSF no.        20 is     -0.91633241   -9.16332409E-01
  Orbital          1   4   2   3
  Spin coupling    2   2   1  -1

 Printout of coefficients in interval  1.0000E-01 to  3.1623E-01
 ===============================================================

  Coefficient of CSF no.        29 is      0.30765119    3.07651186E-01
  Orbital          1   5   2   3
  Spin coupling    2   2   1  -1

  Coefficient of CSF no.        43 is      0.12259312    1.22593119E-01
  Orbital          2   1   3   4   5
  Spin coupling    2   1   1  -1  -1

  Coefficient of CSF no.        47 is     -0.18886243   -1.88862432E-01
  Orbital          4   1   2   3   5
  Spin coupling    2   1   1  -1  -1

 Printout of coefficients in interval  1.0000E-01 to  1.0000E-01
 ===============================================================
   ( no coefficients )

 Norm of printed CI vector ..      0.98501243

 Magnitude of CI coefficients
 ============================
 ( Ranges are relative to norm of vector :  1.00E+00 )

  10- 1 to 10- 0         4    0.98501243E+00      0.9850124266
  10- 2 to 10- 1         6    0.14987573E-01      1.0000000000
  Number of coefficients less than 10^-11 times norm is           40


 @ Excited state no:    9 in symmetry 1  ( A  ) - singlet excitation
 -------------------------------------------------------------------

@ Excitation energy :  0.98545866     au
@                       26.815694     eV;   216283.17     cm-1;   2587.3213     kJ / mol

@ Total energy :       -75.042724     au

@ Operator label: XDIPLEN ; Transition moment : -1.91531729E-15 au
@ Oscillator strength (LENGTH)   :  2.41006418E-30  (X-polarization)

@ Operator label: YDIPLEN ; Transition moment :  7.83423628E-16 au
@ Oscillator strength (LENGTH)   :  4.03218531E-31  (Y-polarization)

@ Operator label: ZDIPLEN ; Transition moment :  6.93491328E-15 au
@ Oscillator strength (LENGTH)   :  3.15957902E-29  (Z-polarization)
@ Total oscillator strength (LENGTH)   :  3.44090729E-29

 Eigenvector for state no.  9

      Index(conf)                         Z operator          Y operator
      ----------                      --------------      --------------
          22                            0.1349394070        0.0000000000
          41                            0.9655373856        0.0000000000
          50                           -0.1522036935        0.0000000000

       47 elements with absolute value ≤ 1.00D-01 are not printed.

 Printout of coefficients in interval  3.1623E-01 to  1.0000E+00
 ===============================================================

  Coefficient of CSF no.        41 is      0.96553739    9.65537386E-01
  Orbital          1   2   3   4   5
  Spin coupling    2   1   1  -1  -1

 Printout of coefficients in interval  1.0000E-01 to  3.1623E-01
 ===============================================================

  Coefficient of CSF no.        22 is      0.13493941    1.34939407E-01
  Orbital          1   4   3   5
  Spin coupling    2   2   1  -1

  Coefficient of CSF no.        50 is     -0.15220369   -1.52203694E-01
  Orbital          5   1   2   3   4
  Spin coupling    2   1  -1   1  -1

 Norm of printed CI vector ..      0.97363705

 Magnitude of CI coefficients
 ============================
 ( Ranges are relative to norm of vector :  1.00E+00 )

  10- 1 to 10- 0         3    0.97363705E+00      0.9736370510
  10- 2 to 10- 1         7    0.26362949E-01      1.0000000000
  Number of coefficients less than 10^-11 times norm is           40


 @ Excited state no:   10 in symmetry 1  ( A  ) - singlet excitation
 -------------------------------------------------------------------

@ Excitation energy :   1.0698922     au
@                       29.113247     eV;   234814.19     cm-1;   2809.0015     kJ / mol

@ Total energy :       -74.958291     au

@ Operator label: XDIPLEN ; Transition moment :  2.11416782E-16 au
@ Oscillator strength (LENGTH)   :  3.18806867E-32  (X-polarization)

@ Operator label: YDIPLEN ; Transition moment :  7.11841094E-16 au
@ Oscillator strength (LENGTH)   :  3.61422230E-31  (Y-polarization)

@ Operator label: ZDIPLEN ; Transition moment :  2.57623333E-16 au
@ Oscillator strength (LENGTH)   :  4.73390063E-32  (Z-polarization)
@ Total oscillator strength (LENGTH)   :  4.40641923E-31

 Eigenvector for state no. 10

      Index(conf)                         Z operator          Y operator
      ----------                      --------------      --------------
          23                            0.9341468920        0.0000000000
          25                            0.1444973465        0.0000000000
          32                           -0.2878479739        0.0000000000
          41                            0.1031128607        0.0000000000

       46 elements with absolute value ≤ 1.00D-01 are not printed.

 Printout of coefficients in interval  3.1623E-01 to  1.0000E+00
 ===============================================================

  Coefficient of CSF no.        23 is      0.93414689    9.34146892E-01
  Orbital          2   4   1   3
  Spin coupling    2   2   1  -1

 Printout of coefficients in interval  1.0000E-01 to  3.1623E-01
 ===============================================================

  Coefficient of CSF no.        25 is      0.14449735    1.44497346E-01
  Orbital          2   4   3   5
  Spin coupling    2   2   1  -1

  Coefficient of CSF no.        32 is     -0.28784797   -2.87847974E-01
  Orbital          2   5   1   3
  Spin coupling    2   2   1  -1

  Coefficient of CSF no.        41 is      0.10311286    1.03112861E-01
  Orbital          1   2   3   4   5
  Spin coupling    2   1   1  -1  -1

 Norm of printed CI vector ..      0.98699862

 Magnitude of CI coefficients
 ============================
 ( Ranges are relative to norm of vector :  1.00E+00 )

  10- 1 to 10- 0         4    0.98699862E+00      0.9869986171
  10- 2 to 10- 1         5    0.12939679E-01      0.9999382963
  10- 3 to 10- 2         1    0.61703728E-04      1.0000000000
  Number of coefficients less than 10^-11 times norm is           40


 @ Excited state no:   11 in symmetry 1  ( A  ) - singlet excitation
 -------------------------------------------------------------------

@ Excitation energy :   1.0911566     au
@                       29.691882     eV;   239481.20     cm-1;   2864.8313     kJ / mol

@ Total energy :       -74.937026     au

@ Operator label: XDIPLEN ; Transition moment :  5.12475642E-03 au
@ Oscillator strength (LENGTH)   :  1.91047910E-05  (X-polarization)

@ Operator label: YDIPLEN ; Transition moment : -1.45667449E-15 au
@ Oscillator strength (LENGTH)   :  1.54355058E-30  (Y-polarization)

@ Operator label: ZDIPLEN ; Transition moment :  2.54666391E-16 au
@ Oscillator strength (LENGTH)   :  4.71779536E-32  (Z-polarization)
@ Total oscillator strength (LENGTH)   :  1.91047910E-05

 Eigenvector for state no. 11

      Index(conf)                         Z operator          Y operator
      ----------                      --------------      --------------
           2                           -0.2028680123        0.0000000000
           3                           -0.8439153869        0.0000000000
           4                            0.2118297602        0.0000000000
           6                            0.2947763461        0.0000000000
          27                           -0.1720572917        0.0000000000
          45                           -0.2550490177        0.0000000000

       44 elements with absolute value ≤ 1.00D-01 are not printed.

 Printout of coefficients in interval  3.1623E-01 to  1.0000E+00
 ===============================================================

  Coefficient of CSF no.         3 is     -0.84391539   -8.43915387E-01
  Orbital          1   3   4
  Spin coupling    2   2   2

[...]
      ----------                      --------------      --------------
           7                           -0.1199534076        0.0000000000
          10                            0.1641121477        0.0000000000
          30                           -0.1211931851        0.0000000000
          37                           -0.9427656287        0.0000000000
          45                            0.2041529837        0.0000000000

       45 elements with absolute value ≤ 1.00D-01 are not printed.

 Printout of coefficients in interval  3.1623E-01 to  1.0000E+00
 ===============================================================

  Coefficient of CSF no.        37 is     -0.94276563   -9.42765629E-01
  Orbital          3   5   2   4
  Spin coupling    2   2   1  -1

 Printout of coefficients in interval  1.0000E-01 to  3.1623E-01
 ===============================================================

  Coefficient of CSF no.         7 is     -0.11995341   -1.19953408E-01
  Orbital          2   3   5
  Spin coupling    2   2   2

  Coefficient of CSF no.        10 is      0.16411215    1.64112148E-01
  Orbital          3   4   5
  Spin coupling    2   2   2

  Coefficient of CSF no.        30 is     -0.12119319   -1.21193185E-01
  Orbital          1   5   2   4
  Spin coupling    2   2   1  -1

  Coefficient of CSF no.        45 is      0.20415298    2.04152984E-01
  Orbital          3   1   2   4   5
  Spin coupling    2   1   1  -1  -1

 Norm of printed CI vector ..      0.98649488

 Magnitude of CI coefficients
 ============================
 ( Ranges are relative to norm of vector :  1.00E+00 )

  10- 1 to 10- 0         5    0.98649488E+00      0.9864948767
  10- 2 to 10- 1         8    0.13413522E-01      0.9999083987
  10- 3 to 10- 2         4    0.91596777E-04      0.9999999955
  10- 5 to 10- 4         1    0.45223730E-08      1.0000000000
  Number of coefficients less than 10^-11 times norm is           32


 @ Excited state no:   44 in symmetry 1  ( A  ) - singlet excitation
 -------------------------------------------------------------------

@ Excitation energy :   3.3331251     au
@                       90.698948     eV;   731536.40     cm-1;   8751.1186     kJ / mol

@ Total energy :       -72.695058     au

@ Operator label: XDIPLEN ; Transition moment :  1.28960101E-04 au
@ Oscillator strength (LENGTH)   :  3.69548195E-08  (X-polarization)

@ Operator label: YDIPLEN ; Transition moment :  4.49700350E-17 au
@ Oscillator strength (LENGTH)   :  4.49372826E-33  (Y-polarization)

@ Operator label: ZDIPLEN ; Transition moment :  2.85349182E-18 au
@ Oscillator strength (LENGTH)   :  1.80931264E-35  (Z-polarization)
@ Total oscillator strength (LENGTH)   :  3.69548195E-08

 Eigenvector for state no. 44

      Index(conf)                         Z operator          Y operator
      ----------                      --------------      --------------
           8                           -0.9085509206        0.0000000000
           9                            0.3586353624        0.0000000000
          24                           -0.1070877644        0.0000000000
          30                           -0.1655016631        0.0000000000

       46 elements with absolute value ≤ 1.00D-01 are not printed.

 Printout of coefficients in interval  3.1623E-01 to  1.0000E+00
 ===============================================================

  Coefficient of CSF no.         8 is     -0.90855092   -9.08550921E-01
  Orbital          1   4   5
  Spin coupling    2   2   2

  Coefficient of CSF no.         9 is      0.35863536    3.58635362E-01
  Orbital          2   4   5
  Spin coupling    2   2   2

 Printout of coefficients in interval  1.0000E-01 to  3.1623E-01
 ===============================================================

  Coefficient of CSF no.        24 is     -0.10708776   -1.07087764E-01
  Orbital          2   4   1   5
  Spin coupling    2   2   1  -1

  Coefficient of CSF no.        30 is     -0.16550166   -1.65501663E-01
  Orbital          1   5   2   4
  Spin coupling    2   2   1  -1

 Norm of printed CI vector ..      0.99294269

 Magnitude of CI coefficients
 ============================
 ( Ranges are relative to norm of vector :  1.00E+00 )

  10- 1 to 10- 0         4    0.99294269E+00      0.9929426883
  10- 2 to 10- 1         5    0.70067781E-02      0.9999494664
  10- 3 to 10- 2         5    0.48786091E-04      0.9999982525
  10- 4 to 10- 3         4    0.17474889E-05      1.0000000000
  Number of coefficients less than 10^-11 times norm is           32


 @ Excited state no:   45 in symmetry 1  ( A  ) - singlet excitation
 -------------------------------------------------------------------

@ Excitation energy :   3.3403015     au
@                       90.894226     eV;   733111.42     cm-1;   8769.9601     kJ / mol

@ Total energy :       -72.687881     au

@ Operator label: XDIPLEN ; Transition moment : -2.96784883E-16 au
@ Oscillator strength (LENGTH)   :  1.96145322E-31  (X-polarization)

@ Operator label: YDIPLEN ; Transition moment : -9.71862001E-05 au
@ Oscillator strength (LENGTH)   :  2.10331156E-08  (Y-polarization)

@ Operator label: ZDIPLEN ; Transition moment : -9.45171452E-17 au
@ Oscillator strength (LENGTH)   :  1.98937014E-32  (Z-polarization)
@ Total oscillator strength (LENGTH)   :  2.10331156E-08

 Eigenvector for state no. 45

      Index(conf)                         Z operator          Y operator
      ----------                      --------------      --------------
          21                           -0.2140780545        0.0000000000
          33                            0.1162072248        0.0000000000
          38                           -0.9693754976        0.0000000000

       47 elements with absolute value ≤ 1.00D-01 are not printed.

 Printout of coefficients in interval  3.1623E-01 to  1.0000E+00
 ===============================================================

  Coefficient of CSF no.        38 is     -0.96937550   -9.69375498E-01
  Orbital          4   5   1   2
  Spin coupling    2   2   1  -1

 Printout of coefficients in interval  1.0000E-01 to  3.1623E-01
 ===============================================================

  Coefficient of CSF no.        21 is     -0.21407805   -2.14078055E-01
  Orbital          1   4   2   5
  Spin coupling    2   2   1  -1

  Coefficient of CSF no.        33 is      0.11620722    1.16207225E-01
  Orbital          2   5   1   4
  Spin coupling    2   2   1  -1

 Norm of printed CI vector ..      0.99902239

 Magnitude of CI coefficients
 ============================
 ( Ranges are relative to norm of vector :  1.00E+00 )

  10- 1 to 10- 0         3    0.99902239E+00      0.9990223879
  10- 2 to 10- 1         1    0.91373251E-03      0.9999361204
  10- 3 to 10- 2         5    0.63190256E-04      0.9999993107
  10- 4 to 10- 3         3    0.68934407E-06      1.0000000000
  Number of coefficients less than 10^-11 times norm is           38

@ Singlet transition operator label: XDIPLEN 
@ STATE NO:   46 *TRANSITION MOMENT:  1.15756886E-16 *ENERGY(eV):   92.052005    
@ STATE NO:   47 *TRANSITION MOMENT: -1.31024140E-04 *ENERGY(eV):   93.002040    
@ STATE NO:   48 *TRANSITION MOMENT:  1.35498924E-16 *ENERGY(eV):   93.464912    
@ STATE NO:   49 *TRANSITION MOMENT: -1.00175631E-04 *ENERGY(eV):   96.511968    

@ Singlet transition operator label: YDIPLEN 
@ STATE NO:   46 *TRANSITION MOMENT:  1.73791633E-16 *ENERGY(eV):   92.052005    
@ STATE NO:   47 *TRANSITION MOMENT:  2.24684119E-17 *ENERGY(eV):   93.002040    
@ STATE NO:   48 *TRANSITION MOMENT:  5.95611009E-16 *ENERGY(eV):   93.464912    
@ STATE NO:   49 *TRANSITION MOMENT: -2.40996291E-17 *ENERGY(eV):   96.511968    

@ Singlet transition operator label: ZDIPLEN 
@ STATE NO:   46 *TRANSITION MOMENT:  7.51541297E-17 *ENERGY(eV):   92.052005    
@ STATE NO:   47 *TRANSITION MOMENT:  2.59567495E-17 *ENERGY(eV):   93.002040    
@ STATE NO:   48 *TRANSITION MOMENT:  8.48068840E-05 *ENERGY(eV):   93.464912    
@ STATE NO:   49 *TRANSITION MOMENT:  2.14705032E-17 *ENERGY(eV):   96.511968    


 **************************************************************************************
 *** @ Excit. operator sym 1 & ref. state sym 1 => excited state symmetry 1  ( A  ) ***
 **************************************************************************************



 @ Excited state no:   46 in symmetry 1  ( A  ) - singlet excitation
 -------------------------------------------------------------------

@ Excitation energy :   3.3828490     au
@                       92.052005     eV;   742449.54     cm-1;   8881.6688     kJ / mol

@ Total energy :       -72.645334     au

@ Operator label: XDIPLEN ; Transition moment :  1.15756886E-16 au
@ Oscillator strength (LENGTH)   :  3.02193434E-32  (X-polarization)

@ Operator label: YDIPLEN ; Transition moment :  1.73791633E-16 au
@ Oscillator strength (LENGTH)   :  6.81159922E-32  (Y-polarization)

@ Operator label: ZDIPLEN ; Transition moment :  7.51541297E-17 au
@ Oscillator strength (LENGTH)   :  1.27378772E-32  (Z-polarization)
@ Total oscillator strength (LENGTH)   :  1.11073213E-31

 Eigenvector for state no. 46

      Index(conf)                         Z operator          Y operator
      ----------                      --------------      --------------
          22                           -0.2154119663        0.0000000000
          39                           -0.9611700686        0.0000000000
          49                            0.1430034152        0.0000000000

       47 elements with absolute value ≤ 1.00D-01 are not printed.

 Printout of coefficients in interval  3.1623E-01 to  1.0000E+00
 ===============================================================

  Coefficient of CSF no.        39 is     -0.96117007   -9.61170069E-01
  Orbital          4   5   1   3
  Spin coupling    2   2   1  -1

 Printout of coefficients in interval  1.0000E-01 to  3.1623E-01
 ===============================================================

  Coefficient of CSF no.        22 is     -0.21541197   -2.15411966E-01
  Orbital          1   4   3   5
  Spin coupling    2   2   1  -1

  Coefficient of CSF no.        49 is      0.14300342    1.43003415E-01
  Orbital          5   1   2   3   4
  Spin coupling    2   1   1  -1  -1

 Norm of printed CI vector ..      0.99070019

 Magnitude of CI coefficients
 ============================
 ( Ranges are relative to norm of vector :  1.00E+00 )

  10- 1 to 10- 0         3    0.99070019E+00      0.9907001927
  10- 2 to 10- 1         4    0.92656127E-02      0.9999658054
  10- 3 to 10- 2         2    0.34146517E-04      0.9999999519
  10- 4 to 10- 3         1    0.48061665E-07      1.0000000000
  Number of coefficients less than 10^-11 times norm is           40


 @ Excited state no:   47 in symmetry 1  ( A  ) - singlet excitation
 -------------------------------------------------------------------

@ Excitation energy :   3.4177622     au
@                       93.002040     eV;   750112.09     cm-1;   8973.3332     kJ / mol

@ Total energy :       -72.610421     au

@ Operator label: XDIPLEN ; Transition moment : -1.31024140E-04 au
@ Oscillator strength (LENGTH)   :  3.91158899E-08  (X-polarization)

@ Operator label: YDIPLEN ; Transition moment :  2.24684119E-17 au
@ Oscillator strength (LENGTH)   :  1.15025819E-33  (Y-polarization)

@ Operator label: ZDIPLEN ; Transition moment :  2.59567495E-17 au
@ Oscillator strength (LENGTH)   :  1.53515132E-33  (Z-polarization)
@ Total oscillator strength (LENGTH)   :  3.91158899E-08

 Eigenvector for state no. 47

      Index(conf)                         Z operator          Y operator
      ----------                      --------------      --------------
           8                           -0.2993046532        0.0000000000
           9                           -0.8056672264        0.0000000000
          10                            0.4195040442        0.0000000000
          24                            0.2430641902        0.0000000000
          27                           -0.1237228763        0.0000000000

       45 elements with absolute value ≤ 1.00D-01 are not printed.

 Printout of coefficients in interval  3.1623E-01 to  1.0000E+00
 ===============================================================

  Coefficient of CSF no.         9 is     -0.80566723   -8.05667226E-01
  Orbital          2   4   5
  Spin coupling    2   2   2

  Coefficient of CSF no.        10 is      0.41950404    4.19504044E-01
  Orbital          3   4   5
  Spin coupling    2   2   2

 Printout of coefficients in interval  1.0000E-01 to  3.1623E-01
 ===============================================================

  Coefficient of CSF no.         8 is     -0.29930465   -2.99304653E-01
  Orbital          1   4   5
  Spin coupling    2   2   2

  Coefficient of CSF no.        24 is      0.24306419    2.43064190E-01
  Orbital          2   4   1   5
  Spin coupling    2   2   1  -1

  Coefficient of CSF no.        27 is     -0.12372288   -1.23722876E-01
  Orbital          3   4   1   5
  Spin coupling    2   2   1  -1

 Norm of printed CI vector ..      0.98905415

 Magnitude of CI coefficients
 ============================
 ( Ranges are relative to norm of vector :  1.00E+00 )

  10- 1 to 10- 0         5    0.98905415E+00      0.9890541490
  10- 2 to 10- 1         7    0.10909893E-01      0.9999640416
  10- 3 to 10- 2         3    0.34929458E-04      0.9999989711
  10- 4 to 10- 3         3    0.10289050E-05      1.0000000000
  Number of coefficients less than 10^-11 times norm is           32


 @ Excited state no:   48 in symmetry 1  ( A  ) - singlet excitation
 -------------------------------------------------------------------

@ Excitation energy :   3.4347724     au
@                       93.464912     eV;   753845.41     cm-1;   9017.9936     kJ / mol

@ Total energy :       -72.593410     au

@ Operator label: XDIPLEN ; Transition moment :  1.35498924E-16 au
@ Oscillator strength (LENGTH)   :  4.20415190E-32  (X-polarization)

@ Operator label: YDIPLEN ; Transition moment :  5.95611009E-16 au
@ Oscillator strength (LENGTH)   :  8.12329346E-31  (Y-polarization)

@ Operator label: ZDIPLEN ; Transition moment :  8.48068840E-05 au
@ Oscillator strength (LENGTH)   :  1.64690642E-08  (Z-polarization)
@ Total oscillator strength (LENGTH)   :  1.64690642E-08

 Eigenvector for state no. 48

      Index(conf)                         Z operator          Y operator
      ----------                      --------------      --------------
          34                           -0.1120419413        0.0000000000
          40                            0.9498290285        0.0000000000
          47                           -0.2452689610        0.0000000000
          48                            0.1450594234        0.0000000000

       46 elements with absolute value ≤ 1.00D-01 are not printed.

 Printout of coefficients in interval  3.1623E-01 to  1.0000E+00
 ===============================================================

  Coefficient of CSF no.        40 is      0.94982903    9.49829029E-01
  Orbital          4   5   2   3
  Spin coupling    2   2   1  -1

 Printout of coefficients in interval  1.0000E-01 to  3.1623E-01
 ===============================================================

  Coefficient of CSF no.        34 is     -0.11204194   -1.12041941E-01
  Orbital          2   5   3   4
  Spin coupling    2   2   1  -1

  Coefficient of CSF no.        47 is     -0.24526896   -2.45268961E-01
  Orbital          4   1   2   3   5
  Spin coupling    2   1   1  -1  -1

  Coefficient of CSF no.        48 is      0.14505942    1.45059423E-01
  Orbital          4   1   2   3   5
  Spin coupling    2   1  -1   1  -1

 Printout of coefficients in interval  1.0000E-01 to  1.0000E-01
 ===============================================================
   ( no coefficients )

 Norm of printed CI vector ..      0.99592768

 Magnitude of CI coefficients
 ============================
 ( Ranges are relative to norm of vector :  1.00E+00 )

  10- 1 to 10- 0         4    0.99592768E+00      0.9959276796
  10- 2 to 10- 1         3    0.39744975E-02      0.9999021771
  10- 3 to 10- 2         3    0.97822928E-04      1.0000000000
  Number of coefficients less than 10^-11 times norm is           40


 @ Excited state no:   49 in symmetry 1  ( A  ) - singlet excitation
 -------------------------------------------------------------------

@ Excitation energy :   3.5467497     au
@                       96.511968     eV;   778421.57     cm-1;   9311.9898     kJ / mol

@ Total energy :       -72.481433     au

@ Operator label: XDIPLEN ; Transition moment : -1.00175631E-04 au
@ Oscillator strength (LENGTH)   :  2.37281267E-08  (X-polarization)

@ Operator label: YDIPLEN ; Transition moment : -2.40996291E-17 au
@ Oscillator strength (LENGTH)   :  1.37328284E-33  (Y-polarization)

@ Operator label: ZDIPLEN ; Transition moment :  2.14705032E-17 au
@ Oscillator strength (LENGTH)   :  1.08999304E-33  (Z-polarization)
@ Total oscillator strength (LENGTH)   :  2.37281267E-08

 Eigenvector for state no. 49

      Index(conf)                         Z operator          Y operator
      ----------                      --------------      --------------
           8                           -0.2306992990        0.0000000000
           9                           -0.3694782792        0.0000000000
          10                           -0.8416000282        0.0000000000
          24                            0.1114227664        0.0000000000
          27                            0.2523915632        0.0000000000
          37                           -0.1384255029        0.0000000000

       44 elements with absolute value ≤ 1.00D-01 are not printed.

 Printout of coefficients in interval  3.1623E-01 to  1.0000E+00
 ===============================================================

  Coefficient of CSF no.         9 is     -0.36947828   -3.69478279E-01
  Orbital          2   4   5
  Spin coupling    2   2   2

  Coefficient of CSF no.        10 is     -0.84160003   -8.41600028E-01
  Orbital          3   4   5
  Spin coupling    2   2   2

 Printout of coefficients in interval  1.0000E-01 to  3.1623E-01
 ===============================================================

  Coefficient of CSF no.         8 is     -0.23069930   -2.30699299E-01
  Orbital          1   4   5
  Spin coupling    2   2   2

  Coefficient of CSF no.        24 is      0.11142277    1.11422766E-01
  Orbital          2   4   1   5
  Spin coupling    2   2   1  -1

  Coefficient of CSF no.        27 is      0.25239156    2.52391563E-01
  Orbital          3   4   1   5
  Spin coupling    2   2   1  -1

  Coefficient of CSF no.        37 is     -0.13842550   -1.38425503E-01
  Orbital          3   5   2   4
  Spin coupling    2   2   1  -1

 Norm of printed CI vector ..      0.99330513

 Magnitude of CI coefficients
 ============================
 ( Ranges are relative to norm of vector :  1.00E+00 )

  10- 1 to 10- 0         6    0.99330513E+00      0.9933051268
  10- 2 to 10- 1         6    0.64745545E-02      0.9997796813
  10- 3 to 10- 2         6    0.22031868E-03      1.0000000000
  Number of coefficients less than 10^-11 times norm is           32


 Time used in polarization propagator calculation is      0.04 CPU seconds for symmetry 1

  Total CPU  time used in RESPONSE:   0.07 seconds
  Total wall time used in RESPONSE:   0.24 seconds


                   .-------------------------------------------.
                   | End of Dynamic Property Section (RESPONS) |
                   `-------------------------------------------'

  Total CPU  time used in DALTON:   0.27 seconds
  Total wall time used in DALTON:   1.22 seconds

 NOTE:    1 warnings have been issued.
 Check output, result, and error files for "WARNING".

 
     Date and time (Linux)  : Tue Jul  7 15:27:05 2026
     Host name              : n-62-31-21                              
