

     ************************************************************************
     *************** Dalton - An Electronic Structure Program ***************
     ************************************************************************

    This is output from DALTON release Dalton2024.0-dev (2024)
         ( Web site: http://daltonprogram.org )

   ----------------------------------------------------------------------------

    NOTE:
     
    Dalton is an experimental code for the evaluation of molecular
    properties using (MC)SCF, DFT, CI, and CC wave functions.
    The authors accept no responsibility for the performance of
    the code or for the correctness of the results.
     
    The code (in whole or part) is provided under a licence and
    is not to be reproduced for further distribution without
    the written permission of the authors or their representatives.
     
    See the home page "http://daltonprogram.org" for further information.
     
    If results obtained with this code are published,
    the appropriate citations would be both of:
     
       K. Aidas, C. Angeli, K. L. Bak, V. Bakken,
       R. Bast, L. Boman, O. Christiansen, R. Cimiraglia,
       S. Coriani, P. Dahle, E. K. Dalskov, U. Ekstroem,
       T. Enevoldsen, J. J. Eriksen, P. Ettenhuber, B. Fernandez,
       L. Ferrighi, H. Fliegl, L. Frediani, K. Hald, A. Halkier,
       C. Haettig, H. Heiberg, T. Helgaker, A. C. Hennum,
       H. Hettema, E. Hjertenaes, S. Hoest, I.-M. Hoeyvik,
       M. F. Iozzi, B. Jansik, H. J. Aa. Jensen, D. Jonsson,
       P. Joergensen, J. Kauczor, S. Kirpekar,
       T. Kjaergaard, W. Klopper, S. Knecht, R. Kobayashi, H. Koch,
       J. Kongsted, A. Krapp, K. Kristensen, A. Ligabue,
       O. B. Lutnaes, J. I. Melo, K. V. Mikkelsen, R. H. Myhre,
       C. Neiss, C. B. Nielsen, P. Norman, J. Olsen,
       J. M. H. Olsen, A. Osted, M. J. Packer, F. Pawlowski,
       T. B. Pedersen, P. F. Provasi, S. Reine, Z. Rinkevicius,
       T. A. Ruden, K. Ruud, V. Rybkin, P. Salek, C. C. M. Samson,
       A. Sanchez de Meras, T. Saue, S. P. A. Sauer,
       B. Schimmelpfennig, K. Sneskov, A. H. Steindal,
       K. O. Sylvester-Hvid, P. R. Taylor, A. M. Teale,
       E. I. Tellgren, D. P. Tew, A. J. Thorvaldsen, L. Thoegersen,
       O. Vahtras, M. A. Watson, D. J. D. Wilson, M. Ziolkowski
       and H. Agren,
       "The Dalton quantum chemistry program system",
       WIREs Comput. Mol. Sci. 2014, 4:269-284 (doi: 10.1002/wcms.1172)
     
    and
     
       Dalton, a molecular electronic structure program,
       Release Dalton2024.0-dev (2024), see http://daltonprogram.org
   ----------------------------------------------------------------------------

    Authors in alphabetical order (Major contribution(s) in parenthesis):

  Kestutis Aidas,              Vilnius University,        Lithuania   (QM/MM)
  Celestino Angeli,            University of Ferrara,     Italy       (NEVPT2)
  Juan J. Aucar,               Northeast National UniversiArgentina   (LRESC, Relativistic Effects on EFG)
  Keld L. Bak,                 UNI-C,                     Denmark     (AOSOPPA, non-adiabatic coupling, magnetic properties)
  Vebjoern Bakken,             University of Oslo,        Norway      (DALTON; geometry optimizer, symmetry detection)
  Radovan Bast,                UiT The Arctic U. of NorwayNorway      (DALTON installation and execution frameworks)
  Pablo Baudin,                University of Valencia,    Spain       (Cholesky excitation energies)
  Linus Boman,                 NTNU,                      Norway      (Cholesky decomposition and subsystems)
  Bruno N. Cabral Tenorio,     Technical Univ. of Denmark,Denmark     (Lanczos-based CC methods)
  Ove Christiansen,            Aarhus University,         Denmark     (CC module)
  Renzo Cimiraglia,            University of Ferrara,     Italy       (NEVPT2)
  Sonia Coriani,               Technical Univ. of Denmark,Denmark     (CC and RESPONS modules)
  Janusz Cukras,               University of Warsaw,      Poland      (MChD in RESPONS)
  Paal Dahle,                  University of Oslo,        Norway      (Parallelization)
  Erik K. Dalskov,             UNI-C,                     Denmark     (SOPPA)
  Thomas Enevoldsen,           Univ. of Southern Denmark, Denmark     (SOPPA)
  Janus J. Eriksen,            Aarhus University,         Denmark     (Polarizable embedding, TDA)
  Rasmus Faber,                Technical Univ. of Denmark,Denmark     (Vib.avg. NMR w. SOPPA, parallel AO-SOPPA, CVS-CC and EOMCC)
  Tobias Fahleson,             KTH Stockholm,             Sweden      (Damped cubic response)
  Berta Fernandez,             U. of Santiago de CompostelSpain       (Doublet spin, ESR in RESPONS)
  Lara Ferrighi,               Aarhus University,         Denmark     (PCM Cubic response)
  Heike Fliegl,                University of Oslo,        Norway      (CCSD(R12))
  Luca Frediani,               UiT The Arctic U. of NorwayNorway      (PCM)
  Emmanuel Fromager,           Univ. Strasbourg,          France      (MC-srDFT)
  Bin Gao,                     UiT The Arctic U. of NorwayNorway      (Gen1Int library)
  Andre S. P. Gomes,           CNRS/Universite de Lille,  France      (Frozen density embedding)
  Christof Haettig,            Ruhr-University Bochum,    Germany     (CC module)
  Kasper Hald,                 Aarhus University,         Denmark     (CC module)
  Asger Halkier,               Aarhus University,         Denmark     (CC module)
  Frederik Beyer Hansen,       University of Copenhagen,  Denmark     (Parallel AO-SOPPA)
  Erik D. Hedegaard,           Univ. of Southern Denmark, Denmark     (Polarizable embedding, QM/MM, and MC-srDFT)
  Hanne Heiberg,               University of Oslo,        Norway      (Geometry analysis, selected one-electron integrals)
  Trygve Helgaker,             University of Oslo,        Norway      (DALTON; ABACUS, ERI, DFT modules, London, and much more)
  Alf Christian Hennum,        University of Oslo,        Norway      (Parity violation)
  Hinne Hettema,               University of Auckland,    New Zealand (Quadratic response in RESPONS; SIRIUS supersymmetry)
  Andreas E. Hillers-Bendtsen, University of Copenhagen,  Denmark     (MP3)
  Eirik Hjertenaes,            NTNU,                      Norway      (Cholesky decomposition)
  Nicolai Machholdt Hoeyer,    Aarhus University,         Denmark     (MP3)
  Pi A. B. Haase,              University of Copenhagen,  Denmark     (Triplet AO-SOPPA)
  Maria Francesca Iozzi,       University of Oslo,        Norway      (RPA)
  Christoph Jacob,             TU Braunschweig            Germany     (Frozen density embedding)
  Brano Jansik,                Technical Univ. of Ostrava Czech Rep.  (DFT cubic response)
  Hans Joergen Aa. Jensen,     Univ. of Southern Denmark, Denmark     (DALTON; SIRIUS, RESPONS, ABACUS, MC-srDFT, and much more)
  Dan Jonsson,                 UiT The Arctic U. of NorwayNorway      (Cubic response in RESPONS module)
  Poul Joergensen,             Aarhus University,         Denmark     (RESPONS, ABACUS, and CC modules)
  Maciej Kaminski,             University of Warsaw,      Poland      (CPPh in RESPONS)
  Joanna Kauczor,              Linkoeping University,     Sweden      (Complex polarization propagator (CPP) module)
  Sheela Kirpekar,             Univ. of Southern Denmark, Denmark     (Mass-velocity & Darwin integrals)
  Frederik Oersted Kjeldal,    Technical Univ. of Denmark,Denmark     (MP3)
  Erik Kjellgren,              Univ. of Southern Denmark, Denmark     (MC-srDFT)
  Wim Klopper,                 KIT Karlsruhe,             Germany     (R12 code in CC, SIRIUS, and ABACUS modules)
  Stefan Knecht,               ETH Zurich,                Switzerland (Parallel CI and MCSCF, MC-srDFT)
  Rika Kobayashi,              Australian National Univ., Australia   (DIIS in CC, London in MCSCF)
  Henrik Koch,                 NTNU,                      Norway      (CC module, Cholesky decomposition)
  Jacob Kongsted,              Univ. of Southern Denmark, Denmark     (Polarizable embedding, polarizable density embedding, QM/MM)
  Andrea Ligabue,              University of Modena,      Italy       (CTOCD, AOSOPPA)
  Nanna H. List,               Univ. of Southern Denmark, Denmark     (Polarizable embedding)
  Ola B. Lutnaes,              University of Oslo,        Norway      (DFT Hessian)
  Juan I. Melo,                University of Buenos Aires,Argentina   (LRESC, Relativistic Effects on NMR Shieldings)
  Kurt V. Mikkelsen,           University of Copenhagen,  Denmark     (MC-SCRF, QM/MM, and MP3)
  Rolf H. Myhre,               NTNU,                      Norway      (Subsystems and CC3)
  Christian Neiss,             Univ. Erlangen-Nuernberg,  Germany     (CCSD(R12))
  Christian B. Nielsen,        University of Copenhagen,  Denmark     (QM/MM)
  Patrick Norman,              KTH Stockholm,             Sweden      (Cubic response and complex frequency response in RESPONS)
  Jeppe Olsen,                 Aarhus University,         Denmark     (SIRIUS CI/density modules)
  Jogvan Magnus H. Olsen,      Aarhus University,         Denmark     (Polarizable embedding and polarizable density embedding)
  Anders Osted,                Copenhagen University,     Denmark     (QM/MM)
  Martin J. Packer,            University of Sheffield,   UK          (SOPPA)
  Filip Pawlowski,             Kazimierz Wielki UniversityPoland      (CC3)
  Morten N. Pedersen,          Univ. of Southern Denmark, Denmark     (Polarizable embedding)
  Thomas B. Pedersen,          University of Oslo,        Norway      (Cholesky decomposition)
  Patricio F. Provasi,         University of Northeastern,Argentina   (Analysis of coupling constants in localized orbitals)
  Peter Reinholdt,             Univ. of Southern Denmark, Denmark     (Polarizable embedding and polarizable density embedding)
  Zilvinas Rinkevicius,        KTH Stockholm,             Sweden      (open-shell DFT, ESR)
  Elias Rudberg,               KTH Stockholm,             Sweden      (DFT grid and basis info)
  Torgeir A. Ruden,            University of Oslo,        Norway      (Numerical derivatives in ABACUS)
  Kenneth Ruud,                UiT The Arctic U. of NorwayNorway      (DALTON; ABACUS magnetic properties and much more)
  Pawel Salek,                 KTH Stockholm,             Sweden      (DALTON; DFT code)
  Claire C. M. Samson,         University of Karlsruhe    Germany     (Boys localization, r12 integrals in ERI)
  Alfredo Sanchez de Meras,    University of Valencia,    Spain       (CC module, Cholesky decomposition)
  Trond Saue,                  Paul Sabatier University,  France      (direct Fock matrix construction)
  Stephan P. A. Sauer,         University of Copenhagen,  Denmark     (SOPPA(CCSD), SOPPA prop., AOSOPPA, vibrational g-factors)
  Bernd Schimmelpfennig,       Forschungszentrum KarlsruheGermany     (AMFI module)
  Anna K. Schnack-Petersen,    University of Copenhagen,  Denmark     (RPA(D) and HRPA(D) properties in AOSOPPA)
  Kristian Sneskov,            Aarhus University,         Denmark     (Polarizable embedding, QM/MM)
  Arnfinn H. Steindal,         UiT The Arctic U. of NorwayNorway      (parallel QM/MM, polarizable embedding)
  Casper Steinmann,            Aalborg University,        Denmark     (QFIT, polarizable embedding)
  K. O. Sylvester-Hvid,        University of Copenhagen,  Denmark     (MC-SCRF)
  Peter R. Taylor,             VLSCI/Univ. of Melbourne,  Australia   (Symmetry handling ABACUS, integral transformation)
  Andrew M. Teale,             University of Nottingham,  England     (DFT-AC, DFT-D)
  David P. Tew,                University of Bristol,     England     (CCSD(R12))
  Julien Toulouse,             Sorbonne Univ.,            France      (MC-srDFT)
  Olav Vahtras,                KTH Stockholm,             Sweden      (Triplet response, spin-orbit, ESR, TDDFT, open-shell DFT)
  Lucas Visscher,              Vrije Universiteit AmsterdaNetherlands (Frozen density embedding)
  David J. Wilson,             La Trobe University,       Australia   (DFT Hessian and DFT magnetizabilities)
  Luna Zamok,                  University of Copenhagen,  Denmark     (Block Lanczos RPA solver in SOPPA module)
  Hans Agren,                  KTH Stockholm,             Sweden      (SIRIUS module, RESPONS, MC-SCRF solvation)
 --------------------------------------------------------------------------------

     Date and time (Linux)  : Tue Jul  7 15:31:22 2026
     Host name              : n-62-31-24                              

 * Work memory size             :   512000000 =  3.815 gigabytes.

 * Directories for basis set searches:
   1) /work3/jochar/DaltonTests
   2) /zhome/d7/7/119775/My_Codes/Dalton_Release/dalton/build_omp_nov24/basis


Compilation information
-----------------------

 Who compiled             | soco
 Host                     | hpclogin1
 System                   | Linux-6.1.112-1.el9.elrepo.x86_64
 CMake generator          | Unix Makefiles
 Processor                | x86_64
 64-bit integers          | OFF
 MPI                      | OFF
 Fortran compiler         | /appl/intel/2023.2.0.49397/compiler/2023.2.0/linux
                          | /bin/intel64/ifort
 Fortran compiler version | ifort (IFORT) 2021.10.0 20230609
 C compiler               | /appl/intel/2023.2.0.49397/compiler/2023.2.0/linux
                          | /bin/intel64/icc
 C compiler version       | icc (ICC) 2021.10.0 20230609
 C++ compiler             | /appl/intel/2023.2.0.49397/compiler/2023.2.0/linux
                          | /bin/intel64/icpc
 C++ compiler version     | icpc (ICC) 2021.10.0 20230609
 Static linking           | OFF
 Last Git revision        | a531ac4fbf115ebda1c90140ce3fd6aa236a2033
 Git branch               | master
 Configuration time       | 2024-11-14 11:23:30.470039

 * Sequential calculation.


   Content of the .dal input file
 ----------------------------------

**DALTON INPUT
.RUN WAVE FUNCTIONS   !tipo di calcolo
.RUN RESPONSE
**INTEGRALS
.DIPLEN               !integrali dell'operatore dipolo elettrico
**WAVE FUNCTION
.HF
.CI
!*PRINT
!.PRINTL
!   0 11
*SCF INP              !parte da Hartree-Fock
.DOUBLY OCCUPIED
5
.THRESH               !soglia di convergenza
 1.0D-10
*CONFIGURATION INPUT
.SPIN MULTIPLICITY
1
.SYMMETRY
1
.INACTIVE ORBITALS !the inner electrons are kept frozen
1
.CAS SPACE
6
.ELECTRONS
8
**RESPONS
*LINEAR
.THCLR
1.0d-9
.DIPLEN
.SINGLE RESIDUE
.ROOTS
300
**END OF INPUT


   Content of the .mol file
 ----------------------------

BASIS
cc-pVDZ
test VQE
dalton test
Atomtypes=2 Angstrom Nosymmetry
Charge=8.0 Atoms=1
O     0.1035000000000000  0.0000000000000000  0.0
Charge=1.0 Atoms=2
H    -0.4640000000000000  0.7956000000000000  0.0
H    -0.4640000000000000  -0.7956000000000000  0.0


       *******************************************************************
       *********** Output from DALTON general input processing ***********
       *******************************************************************

 --------------------------------------------------------------------------------
   Overall default print level:    0
   Print level for DALTON.STAT:    1

    HERMIT 1- and 2-electron integral sections will be executed
    "Old" integral transformation used (limited to max 255 basis functions)
    Wave function sections will be executed (SIRIUS module)
    Dynamic molecular response properties section will be executed (RESPONSE module)
 --------------------------------------------------------------------------------


   ****************************************************************************
   *************** Output of molecule and basis set information ***************
   ****************************************************************************


    The two title cards from your ".mol" input:
    --------------------------------------------------------------------------------
 1: test VQE
 2: dalton test
    --------------------------------------------------------------------------------

  Coordinates are entered in Angstrom and converted to atomic units.
          - Conversion factor : 1 bohr = 0.52917721 A

  Atomic type no.    1
  --------------------
  Nuclear charge:   8.00000
  Number of symmetry independent centers:    1
  Number of basis sets to read;    2
  Basis set file used for this atomic type with Z =   8 :
     "/zhome/d7/7/119775/My_Codes/Dalton_Release/dalton/build_omp_nov24/basis/cc-pVDZ"

  Atomic type no.    2
  --------------------
  Nuclear charge:   1.00000
  Number of symmetry independent centers:    2
  Number of basis sets to read;    2
  Basis set file used for this atomic type with Z =   1 :
     "/zhome/d7/7/119775/My_Codes/Dalton_Release/dalton/build_omp_nov24/basis/cc-pVDZ"


                         SYMGRP: Point group information
                         -------------------------------

@    Point group: C1 


                                 Isotopic Masses
                                 ---------------

                           O          15.994915
                           H           1.007825
                           H           1.007825

                       Total mass:    18.010565 amu
                       Natural abundance:  99.730 %

 Center-of-mass coordinates (a.u.):    0.075567    0.000000    0.000000
 Center-of-mass coordinates (Angs):    0.039988    0.000000    0.000000


  Atoms and basis sets
  --------------------

  Number of atom types :    2
  Total number of atoms:    3

  Basis set used is "cc-pVDZ" from the basis set library.

  label    atoms   charge   prim   cont     basis
  ----------------------------------------------------------------------
  O           1    8.0000    26    14      [9s4p1d|3s2p1d]                                    
  H           2    1.0000     7     5      [4s1p|2s1p]                                        
  ----------------------------------------------------------------------
  total:      3   10.0000    40    24
  ----------------------------------------------------------------------
  Spherical harmonic basis used.

  Threshold for neglecting AO integrals:  1.00D-12


  Cartesian Coordinates (a.u.)
  ----------------------------

  Total number of coordinates:    9
  O       :     1  x   0.1955866539    2  y   0.0000000000    3  z   0.0000000000
  H       :     4  x  -0.8768329220    5  y   1.5034661050    6  z   0.0000000000
  H       :     7  x  -0.8768329220    8  y  -1.5034661050    9  z   0.0000000000


   Interatomic separations (in Angstrom):
   --------------------------------------

            O           H           H     
            ------      ------      ------
 O     :    0.000000
 H     :    0.977259    0.000000
 H     :    0.977259    1.591200    0.000000


  Max    interatomic separation is    1.5912 Angstrom (    3.0069 Bohr)
  between atoms    3 and    2, "H     " and "H     ".

  Min HX interatomic separation is    0.9773 Angstrom (    1.8468 Bohr)


  Bond distances (Angstrom):
  --------------------------

                  atom 1     atom 2       distance
                  ------     ------       --------
  bond distance:  H          O            0.977259
  bond distance:  H          O            0.977259


  Bond angles (degrees):
  ----------------------

                  atom 1     atom 2     atom 3         angle
                  ------     ------     ------         -----
  bond angle:     H          O          H            109.000




 Principal moments of inertia (u*A**2) and principal axes
 --------------------------------------------------------

   IA       0.576503          0.000000    1.000000    0.000000
   IB       1.275865          1.000000    0.000000    0.000000
   IC       1.852368          0.000000    0.000000    1.000000


 Rotational constants
 --------------------

@    The molecule is planar.

               A                   B                   C

         876628.8169         396107.0071         272828.6660 MHz
           29.241190           13.212708            9.100585 cm-1


@  Nuclear repulsion energy :    8.996423008986 Hartree


                     .---------------------------------------.
                     | Starting in Integral Section (HERMIT) |
                     `---------------------------------------'



 ***************************************************************************************
 ****************** Output from **INTEGRALS input processing (HERMIT) ******************
 ***************************************************************************************



    *************************************************************************
    ****************** Output from HERMIT input processing ******************
    *************************************************************************


 Default print level:        1

 Calculation of one- and two-electron Hamiltonian integrals.

 The following one-electron property integrals are calculated as requested:
          - overlap integrals
          - dipole length integrals

 Center of mass  (bohr):      0.075566958928      0.000000000000      0.000000000000
 Operator center (bohr):      0.000000000000      0.000000000000      0.000000000000
 Gauge origin    (bohr):      0.000000000000      0.000000000000      0.000000000000
 Dipole origin   (bohr):      0.000000000000      0.000000000000      0.000000000000

Calculation of 2-electron integrals are postponed until they are needed.


     ************************************************************************
     ************************** Output from HERINT **************************
     ************************************************************************



                      Nuclear contribution to dipole moments
                      --------------------------------------

                 au               Debye          C m (/(10**-30)

      x     -0.18897261        -0.48032044        -1.60217653
      y      0.00000000         0.00000000         0.00000000
      z      0.00000000         0.00000000         0.00000000


  Total CPU  time used in HERMIT:   0.02 seconds
  Total wall time used in HERMIT:   0.14 seconds


                        .----------------------------------.
                        | End of Integral Section (HERMIT) |
                        `----------------------------------'



                   .--------------------------------------------.
                   | Starting in Wave Function Section (SIRIUS) |
                   `--------------------------------------------'


     WARNING  Reference state is required for CI response and CI-NO
     WARNING  ".STATE" was not specified for "*CI INPUT",
     WARNING  the reference state is set to be state no.  1

 *** Output from Huckel module :

     Using EWMO model:          T
     Using EHT  model:          F
     Number of Huckel orbitals each symmetry:    7

 EWMO - Energy Weighted Maximum Overlap - is a Huckel type method,
        which normally is better than Extended Huckel Theory.
 Reference: Linderberg and Ohrn, Propagators in Quantum Chemistry (Wiley, 1973)

 Huckel EWMO eigenvalues for symmetry :  1
          -20.684655      -1.594745      -0.787122      -0.682665      -0.616200
           -0.240931      -0.173582

 **********************************************************************
 *SIRIUS* a direct, restricted step, second order MCSCF program       *
 **********************************************************************

 
     Date and time (Linux)  : Tue Jul  7 15:31:23 2026
     Host name              : n-62-31-24                              

 Title lines from ".mol" input file:
     test VQE
     dalton test

 Print level on unit LUPRI =   2 is   0
 Print level on unit LUW4  =   2 is   5

@    Configuration interaction calculation.

@    CI response calculation.

@    CI type: user specified active spaces.
@              Type: complete active space calculation (CAS).

@    This is a combination run starting with
@              a restricted, closed shell Hartree-Fock calculation


 Initial molecular orbitals are obtained according to
 ".MOSTART EWMO  " input option

     Wave function specification
     ============================
@    Wave function type        --- CI ---
@    Number of closed shell electrons           2
@    Number of electrons in active shells       8
@    Total charge of the molecule               0

@    Spin multiplicity and 2 M_S                1         0
@    Total number of symmetries                 1 (point group: C1 )
@    Reference state symmetry                   1 (irrep name : A  )

     Orbital specifications
     ======================
@    Abelian symmetry species          All |    1
@                                          |  A  
                                       --- |  ---
@    Inactive orbitals                   1 |    1
@    Active orbitals                     6 |    6
@    Secondary orbitals                 17 |   17
@    Total number of orbitals           24 |   24
@    Number of basis functions          24 |   24

      -- Initial occupation of symmetries is determined from user input.                      
      -- Initial occupation of symmetries is :
@    Occupied SCF orbitals               5 |    5

     Optimization information
     ========================
@    Number of configurations               105
@    Number of orbital rotations              0
     ------------------------------------------
@    Total number of variables              105

     Maximum number of CI iterations         25
     Threshold for CI convergence      1.00D-05
     Number of CI roots to converge           1

@    Reference state in CI response calculation :       1


 ***********************************************
 ***** DIIS acceleration of SCF iterations *****
 ***********************************************

 C1-DIIS algorithm; max error vectors =    8

 Iter      Total energy        Error norm    Delta(E)  DIIS dim.
 -----------------------------------------------------------------------------

Calculating AOSUPINT

---> (Re)generating AOTWOINT


     ************************************************************************
     ************************** Output from HERINT **************************
     ************************************************************************


 Threshold for neglecting two-electron integrals:  1.00D-12
 HERMIT - Number of two-electron integrals written:       21669 ( 48.0% )
 HERMIT - Megabytes written:                              0.275

     (Precalculated AO two-electron integrals are transformed to P-supermatrix elements.
      Threshold for discarding integrals :  1.00D-12 )

@  1    -75.8627126477        1.56431D+00   -7.59D+01    1
      Virial theorem: -V/T =      2.000620
@    MULPOP   O      -0.55; H       0.28; H       0.28; 
   1  Level shift: doubly occupied orbital energies shifted by -2.00D-01
 -----------------------------------------------------------------------------
@  2    -76.0150619074        3.29776D-01   -1.52D-01    2
      Virial theorem: -V/T =      2.002979
@    MULPOP   O      -0.30; H       0.15; H       0.15; 
   2  Level shift: doubly occupied orbital energies shifted by -5.00D-02
 -----------------------------------------------------------------------------
@  3    -76.0236024771        8.11320D-02   -8.54D-03    3
      Virial theorem: -V/T =      2.001227
@    MULPOP   O      -0.32; H       0.16; H       0.16; 
   3  Level shift: doubly occupied orbital energies shifted by -1.25D-02
 -----------------------------------------------------------------------------
@  4    -76.0242788312        2.22459D-02   -6.76D-04    4
      Virial theorem: -V/T =      2.001861
@    MULPOP   O      -0.33; H       0.17; H       0.17; 
 -----------------------------------------------------------------------------
@  5    -76.0243118595        7.33271D-03   -3.30D-05    5
      Virial theorem: -V/T =      2.001410
@    MULPOP   O      -0.34; H       0.17; H       0.17; 
 -----------------------------------------------------------------------------
@  6    -76.0243170498        1.48247D-03   -5.19D-06    6
      Virial theorem: -V/T =      2.001521
@    MULPOP   O      -0.34; H       0.17; H       0.17; 
 -----------------------------------------------------------------------------
@  7    -76.0243174538        2.14252D-04   -4.04D-07    7
      Virial theorem: -V/T =      2.001537
@    MULPOP   O      -0.34; H       0.17; H       0.17; 
 -----------------------------------------------------------------------------
@  8    -76.0243174619        3.53744D-05   -8.10D-09    8
      Virial theorem: -V/T =      2.001537
@    MULPOP   O      -0.34; H       0.17; H       0.17; 
 -----------------------------------------------------------------------------
@  9    -76.0243174621        6.02110D-06   -1.72D-10    8
      Virial theorem: -V/T =      2.001537
@    MULPOP   O      -0.34; H       0.17; H       0.17; 
 -----------------------------------------------------------------------------
@ 10    -76.0243174621        4.44866D-07   -4.52D-12    8
      Virial theorem: -V/T =      2.001537
@    MULPOP   O      -0.34; H       0.17; H       0.17; 
 -----------------------------------------------------------------------------
@ 11    -76.0243174621        6.76643D-08   -2.84D-14    8
      Virial theorem: -V/T =      2.001537
@    MULPOP   O      -0.34; H       0.17; H       0.17; 
 -----------------------------------------------------------------------------
@ 12    -76.0243174621        8.15212D-09   -2.84D-14    8
      Virial theorem: -V/T =      2.001537
@    MULPOP   O      -0.34; H       0.17; H       0.17; 
 -----------------------------------------------------------------------------
@ 13    -76.0243174621        1.25990D-09    5.68D-14    8
      Virial theorem: -V/T =      2.001537
@    MULPOP   O      -0.34; H       0.17; H       0.17; 
 -----------------------------------------------------------------------------
@ 14    -76.0243174621        1.44304D-10   -2.84D-14    8
      Virial theorem: -V/T =      2.001537
@    MULPOP   O      -0.34; H       0.17; H       0.17; 
 -----------------------------------------------------------------------------
@ 15    -76.0243174621        2.47463D-11    2.84D-14    8

@ *** DIIS converged in  15 iterations !
@     Converged SCF energy, gradient:    -76.024317462073    2.47D-11
    - total time used in SIRFCK :              0.00 seconds

 --- Writing SIRIFC interface file

--------------------------------------------------------------------------------


     .--------------------------------------------------.
     | HF-SCF KT IPs [a.u. & eV] from Koopmans' theorem |
     `--------------------------------------------------'


     HF-SCF KT symmetry 1 ( A  ) in point group C1  -- 5 principal poles with pole strength 1

   ============  ============  ============  ============  ============
      20.551252      1.323334      0.696600      0.553795      0.490020
     559.228027     36.009753     18.955463     15.069519     13.334117
   ============  ============  ============  ============  ============

@ Summary of HF-SCF KT ionization potentials [eV]:

@ Symmetry 1 (A  ) :   559.228      36.010      18.955      15.070      13.334

  === End of HF-SCF KT output ===
--------------------------------------------------------------------------------


 CPU and wall time for SCF :       0.165       2.593


 ----- Output from SIRIUS CI module (CICTL) -----




 2-el. integral transformation level 0: Total CPU and WALL times (sec)       0.015       0.090

 (CIST1) 8 lowest diagonal elements:

 Element no. Config.no.    Active energy      Total energy

         1 :          1    -23.7497058486    -76.0243174621
         2 :         16    -23.4144397391    -75.6890513525
         3 :         19    -23.3345488509    -75.6091604643
         4 :         17    -23.3312485255    -75.6058601389
         5 :         20    -23.2586915817    -75.5333031951
         6 :         22    -23.2085036158    -75.4831152293
         7 :         23    -23.0978269766    -75.3724385901
         8 :         28    -22.7284355474    -75.0030471609

Lowest 1 elements are used as separate start CI vectors.


 Convergence threshold for CI optimization :     0.00001000


 CI root     eigenvalue        residual norm

    1      -76.0243174621        0.1076948348

 CI root     eigenvalue        residual norm

    1      -76.0306216188        0.0251310278

 CI root     eigenvalue        residual norm

    1      -76.0309786961        0.0034941888

 CI root     eigenvalue        residual norm

    1      -76.0309842010        0.0006574892

 CI root     eigenvalue        residual norm

    1      -76.0309844331        0.0001175091

 CI root     eigenvalue        residual norm

    1      -76.0309844390        0.0000187252

 CI root     eigenvalue        residual norm

    1      -76.0309844392        0.0000026039 converged

 The requested root number is now converged.


 *** CI converged in  7 iterations.



@ Final CI energies and residuals in symmetry 1 (irrep A  )
@    1      -76.030984439160562       2.60D-06

 Writing SIRIFC interface file for CI root no. 1

 CPU and wall time for CI :       0.031       0.291


                       .-----------------------------------.
                       | --- Final results from SIRIUS --- |
                       `-----------------------------------'


@    Spin multiplicity:           1
@    Spatial symmetry:            1 ( irrep  A   in C1  )
@    Total charge of molecule:    0

@    This was a CI calculation.
@    State number:                1

@    Final CI energy:             -76.030984439161
@    Nuclear repulsion:             8.996423008986
@    Electronic energy:           -85.027407448146

@    Final gradient norm:           0.000002603857

 
     Date and time (Linux)  : Tue Jul  7 15:31:26 2026
     Host name              : n-62-31-24                              

 Occupancies of natural orbitals
 -------------------------------

 Symmetry 1  ( A  ) -- Total occupation in this symmetry is  10.000000000

   2.000000000   1.999842114   1.995541766   1.996425891   1.999799413
   0.004089066   0.004301751

  Effective numbers of unpaired electrons this symmetry Eqs. 1) and 2):  0.03  0.00

  Total effective number of unpaired electrons :
  Eq. 1) sum(i) [(2 - n_i) n_i]    =  0.0335
  Eq. 2) sum(i) [(2 - n_i) n_i]**2 =  0.0003
 (Reference: M. Head-Gordon, Chemical Physics Letters 372 (2003) 508-511)

  --- NOTE THAT THE OCCUPATION NUMBERS ARE FOR ANALYSIS PURPOSE ONLY
  --- The orbital coefficients have NOT been transformed
  --- to ordered natural orbitals.

File label for MO orbitals:   7Jul26    CIORB  

 (Only coefficients > 0.0100 are printed.)

 Molecular orbitals for symmetry species 1  (A  )
 ------------------------------------------------

    Orbital         1        2        3        4        5        6        7
   1 O   :1s    -1.0004   0.0079   0.0000   0.0019   0.0000   0.0521   0.0000
   2 O   :1s    -0.0021  -0.8751   0.0000  -0.2817   0.0000  -0.1485   0.0000
   3 O   :1s     0.0014   0.1081  -0.0000  -0.1687   0.0000  -0.9072   0.0000
   4 O   :2px    0.0024   0.1042  -0.0000  -0.8002   0.0000   0.2808  -0.0000
   5 O   :2py    0.0000  -0.0000  -0.7065   0.0000   0.0000  -0.0000  -0.4179
   6 O   :2pz   -0.0000  -0.0000  -0.0000  -0.0000  -0.9197  -0.0000   0.0000
   7 O   :2px   -0.0017  -0.0566  -0.0000  -0.0111   0.0000   0.2050  -0.0000
   8 O   :2py   -0.0000   0.0000   0.1051  -0.0000  -0.0000   0.0000  -0.4833
   9 O   :2pz   -0.0000  -0.0000  -0.0000  -0.0000  -0.0739  -0.0000   0.0000
  10 O   :3d2-  -0.0000   0.0000   0.0253  -0.0000   0.0000   0.0000   0.0201
  12 O   :3d0    0.0001   0.0031  -0.0000  -0.0127   0.0000   0.0110  -0.0000
  13 O   :3d1+   0.0000   0.0000   0.0000   0.0000   0.0175   0.0000  -0.0000
  14 O   :3d2+   0.0001   0.0010   0.0000   0.0124  -0.0000  -0.0009   0.0000
  15 H   :1s     0.0002  -0.3116  -0.5557   0.3387   0.0000   0.1175   0.0460
  16 H   :1s    -0.0006   0.1452   0.1882  -0.1252  -0.0000   0.7646   1.3642
  17 H   :2px    0.0004  -0.0182  -0.0313  -0.0085   0.0000   0.0151   0.0154
  18 H   :2py   -0.0005   0.0368   0.0254  -0.0303  -0.0000  -0.0161  -0.0202
  19 H   :2pz    0.0000   0.0000   0.0000   0.0000  -0.0300   0.0000  -0.0000
  20 H   :1s     0.0002  -0.3116   0.5557   0.3387  -0.0000   0.1175  -0.0460
  21 H   :1s    -0.0006   0.1452  -0.1882  -0.1252  -0.0000   0.7646  -1.3642
  22 H   :2px    0.0004  -0.0182   0.0313  -0.0085  -0.0000   0.0151  -0.0154
  23 H   :2py    0.0005  -0.0368   0.0254   0.0303  -0.0000   0.0161  -0.0202
  24 H   :2pz    0.0000   0.0000   0.0000   0.0000  -0.0300   0.0000  -0.0000

    Orbital         8        9       10       11       12       13       14
   1 O   :1s     0.0000   0.0608  -0.0081   0.0000   0.0000   0.0000  -0.2517
   2 O   :1s     0.0000   0.4803   0.1567   0.0000   0.0000   0.0000  -1.2471
   3 O   :1s     0.0000  -0.5323   0.6282   0.0000  -0.0000  -0.0000   1.4455
   4 O   :2px   -0.0000  -0.4242   1.1435   0.0000  -0.0000   0.0000  -0.2494
   5 O   :2py    0.4206  -0.0000  -0.0000   0.0000  -1.0565   0.0000   0.0000
   6 O   :2pz   -0.0000  -0.0000   0.0000  -1.4102   0.0000  -0.0000   0.0000
   7 O   :2px   -0.0000   0.1437  -1.7544   0.0000   0.0000   0.0000   0.7936
   8 O   :2py    0.2256   0.0000   0.0000  -0.0000   2.2439  -0.0000   0.0000
   9 O   :2pz   -0.0000  -0.0000   0.0000   1.6596   0.0000   0.0000   0.0000
  10 O   :3d2-   0.1101  -0.0000  -0.0000   0.0000  -0.0350  -0.0000  -0.0000
  11 O   :3d1-   0.0000   0.0000  -0.0000  -0.0000   0.0000  -0.1329  -0.0000
  12 O   :3d0   -0.0000   0.0865  -0.0067   0.0000  -0.0000  -0.0000  -0.0534
  14 O   :3d2+   0.0000   0.0606   0.0104  -0.0000   0.0000   0.0000   0.1102
  15 H   :1s    -1.5992  -1.4130  -0.7892   0.0000  -0.6607   0.0000   0.4464
  16 H   :1s     1.5007   1.2648   0.2614  -0.0000  -0.4474  -0.0000  -0.4583
  17 H   :2px    0.1584   0.0335  -0.2521   0.0000  -0.1453  -0.0000  -0.5629
  18 H   :2py   -0.0703  -0.2685   0.1062  -0.0000   0.3311  -0.0000  -0.2800
  19 H   :2pz    0.0000   0.0000  -0.0000   0.0262  -0.0000  -0.6808  -0.0000
  20 H   :1s     1.5992  -1.4130  -0.7892  -0.0000   0.6607  -0.0000   0.4464
  21 H   :1s    -1.5007   1.2648   0.2614  -0.0000   0.4474  -0.0000  -0.4583
  22 H   :2px   -0.1584   0.0335  -0.2521  -0.0000   0.1453   0.0000  -0.5629
  23 H   :2py   -0.0703   0.2685  -0.1062  -0.0000   0.3311   0.0000   0.2800
  24 H   :2pz    0.0000   0.0000  -0.0000   0.0262  -0.0000   0.6808  -0.0000

    Orbital        15       16       17
   1 O   :1s     0.0000  -0.7182   0.0000
   2 O   :1s     0.0000  -3.1100   0.0000
   3 O   :1s     0.0000   4.6847  -0.0000
   4 O   :2px    0.0000  -0.0835  -0.0000
   5 O   :2py    0.0000  -0.0000  -0.1371
   6 O   :2pz    0.0234  -0.0000   0.0000
   7 O   :2px    0.0000  -0.9163  -0.0000
   8 O   :2py   -0.0000   0.0000   1.0554
   9 O   :2pz   -0.6582  -0.0000   0.0000
  10 O   :3d2-   0.0000   0.0000   0.0240
  12 O   :3d0    0.0000   0.1528  -0.0000
  13 O   :3d1+  -0.1615   0.0000  -0.0000
  14 O   :3d2+  -0.0000  -0.0557   0.0000
  15 H   :1s     0.0000  -1.3162  -0.7340
  16 H   :1s    -0.0000   0.2849   0.2615
  17 H   :2px    0.0000   0.0988  -0.6795
  18 H   :2py   -0.0000   0.3910  -0.4423
  19 H   :2pz    0.7689   0.0000  -0.0000
  20 H   :1s    -0.0000  -1.3162   0.7340
  21 H   :1s    -0.0000   0.2849  -0.2615
  22 H   :2px   -0.0000   0.0988   0.6795
  23 H   :2py   -0.0000  -0.3910  -0.4423
  24 H   :2pz    0.7689   0.0000  -0.0000

 Printout of CI-coefficients abs greater than 0.05000 for root  1
 *** NOTE: this root is the CI reference state ***

 Printout of coefficients in interval  3.1623E-01 to  1.0000E+00
 ===============================================================

  Coefficient of CSF no.         1 is      0.99777624    9.97776235E-01
  Orbital          1   2   3   4
  Spin coupling    2   2   2   2

 Printout of coefficients in interval  1.0000E-01 to  3.1623E-01
 ===============================================================
   ( no coefficients )

 Printout of coefficients in interval  5.0000E-02 to  1.0000E-01
 ===============================================================
   ( no coefficients )

 Norm of printed CI vector ..      0.99555742

 Magnitude of CI coefficients
 ============================
 ( Ranges are relative to norm of vector :  1.00E+00 )

  10- 1 to 10- 0         1    0.99555742E+00      0.9955574155
  10- 2 to 10- 1        11    0.41835783E-02      0.9997409938
  10- 3 to 10- 2        13    0.25735890E-03      0.9999983527
  10- 4 to 10- 3         8    0.16326813E-05      0.9999999854
  10- 5 to 10- 4         4    0.14598656E-07      1.0000000000
  Number of coefficients less than 10^-11 times norm is           68

  Total CPU  time used in SIRIUS :   0.23 seconds
  Total wall time used in SIRIUS :   3.27 seconds

 
     Date and time (Linux)  : Tue Jul  7 15:31:26 2026
     Host name              : n-62-31-24                              


                     .---------------------------------------.
                     | End of Wave Function Section (SIRIUS) |
                     `---------------------------------------'



                 .------------------------------------------------.
                 | Starting in Dynamic Property Section (RESPONS) |
                 `------------------------------------------------'


 ----------------------------------------------------------------------------------------
  RESPONSE  -  an MCSCF, MC-srDFT, DFT, SOPPA and SOPPA-srDFT response property program
 ----------------------------------------------------------------------------------------

 This is a configuration interaction response calculation.
   Note: this is equivalent to a CI sum-over-states calculation of response properties.


 -------- OUTPUT FROM RESPONSE INPUT PROCESSING --------




  Linear Response single residue calculation
 -------------------------------------------


    4 input options by user.

 Print level                                    : IPRPP  =   2
 Maximum number of iterations for eigenval.eqs. : MAXITP =  60
 Threshold for convergence of eigenvalue eqs.   : THCPP  = 1.000D-03
 Maximum iterations in optimal orbital algorithm: MAXITO =   5

    300 Excitation energies are calculated for symmetry no.    1

      3 property residues are calculated with labels:

               XDIPLEN 
               YDIPLEN 
               ZDIPLEN 

 Old direct access AO file found, SORTA skipped.

 2-el. integral transformation level 4: Total CPU and WALL times (sec)       0.020       0.088


 CI energy            :      -76.030984439160562
 -- inactive part     :      -52.274611613430288
 --   active part     :      -23.756372825730274
 -- nuclear repulsion :        8.996423008985666


                         *******************************
                         *** CI response calculation ***
                         *******************************

 ----------------------------------------------------------------
 ----- Linear response calculation
 ----- Symmetry of excitation/property operator(s)    1  ( A  )
 ----------------------------------------------------------------

 Number of excitations of this symmetry          300
 Number of response properties of this symmetry    0
 Number of C6/C8 properties of this symmetry       0


 Perturbation symmetry.     KSYMOP:           1
 Perturbation spin symmetry.TRPLET:           F
 Orbital variables.         KZWOPT:           0
 Configuration variables.   KZCONF:         105
 Total number of variables. KZVAR :         105

 ** RSPVAR ** Number of PP start vectors  300
   exceeds the maximum number of variables  104
   Number of start vectors reset to number of variables



 --- EXCITATION ENERGIES AND TRANSITION MOMENT CALCULATION (MCTDHF) ---

 Operator symmetry = 1  ( A  ); triplet =   F

RSPORT:    1 out of  105 new trial vectors linear dependent

 ** RSPCTL MICROITERATION NUMBER    1

      Root  Residual tot.,    conf., and orb.    Bnorm      Eigenvalue
      ----------------------------------------------------------------
         1    4.18861D-15  4.19D-15  0.00D+00  1.00D+00    3.21922D-01
         2    4.92753D-15  4.93D-15  0.00D+00  1.00D+00    3.99660D-01
         3    5.67750D-15  5.68D-15  0.00D+00  1.00D+00    4.10749D-01
         4    8.00620D-15  8.01D-15  0.00D+00  1.00D+00    4.81935D-01
         5    5.53607D-15  5.54D-15  0.00D+00  1.00D+00    5.46621D-01
         6    4.58036D-15  4.58D-15  0.00D+00  1.00D+00    6.79625D-01
         7    4.72735D-15  4.73D-15  0.00D+00  1.00D+00    9.28318D-01
         8    5.26283D-15  5.26D-15  0.00D+00  1.00D+00    9.69261D-01
         9    6.05646D-15  6.06D-15  0.00D+00  1.00D+00    9.72719D-01
        10    9.99447D-15  9.99D-15  0.00D+00  1.00D+00    1.05630D+00
        11    7.07683D-15  7.08D-15  0.00D+00  1.00D+00    1.06687D+00
        12    6.26475D-15  6.26D-15  0.00D+00  1.00D+00    1.10672D+00
        13    6.53408D-15  6.53D-15  0.00D+00  1.00D+00    1.14162D+00
        14    4.82834D-15  4.83D-15  0.00D+00  1.00D+00    1.14315D+00
        15    7.37324D-15  7.37D-15  0.00D+00  1.00D+00    1.17477D+00
        16    6.53484D-15  6.53D-15  0.00D+00  1.00D+00    1.18066D+00
        17    6.29641D-15  6.30D-15  0.00D+00  1.00D+00    1.18700D+00
        18    5.47016D-15  5.47D-15  0.00D+00  1.00D+00    1.20449D+00
        19    6.64185D-15  6.64D-15  0.00D+00  1.00D+00    1.22960D+00
        20    5.75944D-15  5.76D-15  0.00D+00  1.00D+00    1.23679D+00
        21    7.28515D-15  7.29D-15  0.00D+00  1.00D+00    1.27219D+00
        22    1.06377D-14  1.06D-14  0.00D+00  1.00D+00    1.27896D+00
        23    6.05624D-15  6.06D-15  0.00D+00  1.00D+00    1.29122D+00
        24    6.77406D-15  6.77D-15  0.00D+00  1.00D+00    1.30783D+00
        25    5.67595D-15  5.68D-15  0.00D+00  1.00D+00    1.33795D+00
        26    1.48021D-14  1.48D-14  0.00D+00  1.00D+00    1.38230D+00
        27    7.59071D-15  7.59D-15  0.00D+00  1.00D+00    1.41324D+00
        28    7.77650D-15  7.78D-15  0.00D+00  1.00D+00    1.49822D+00
        29    6.30771D-15  6.31D-15  0.00D+00  1.00D+00    1.55336D+00
        30    1.52550D-14  1.53D-14  0.00D+00  1.00D+00    1.68083D+00
        31    9.88890D-15  9.89D-15  0.00D+00  1.00D+00    1.74917D+00
        32    5.22528D-15  5.23D-15  0.00D+00  1.00D+00    1.87033D+00
        33    7.03390D-15  7.03D-15  0.00D+00  1.00D+00    1.88060D+00
        34    5.60885D-15  5.61D-15  0.00D+00  1.00D+00    1.92728D+00
        35    7.91135D-15  7.91D-15  0.00D+00  1.00D+00    1.94315D+00
        36    7.99397D-15  7.99D-15  0.00D+00  1.00D+00    1.96010D+00
        37    1.02814D-14  1.03D-14  0.00D+00  1.00D+00    2.00769D+00
        38    1.22614D-14  1.23D-14  0.00D+00  1.00D+00    2.01530D+00
        39    6.00790D-15  6.01D-15  0.00D+00  1.00D+00    2.04316D+00
        40    6.49029D-15  6.49D-15  0.00D+00  1.00D+00    2.07333D+00
        41    1.02280D-14  1.02D-14  0.00D+00  1.00D+00    2.07499D+00
        42    9.27109D-15  9.27D-15  0.00D+00  1.00D+00    2.08904D+00
        43    6.88765D-15  6.89D-15  0.00D+00  1.00D+00    2.10411D+00
        44    7.85119D-15  7.85D-15  0.00D+00  1.00D+00    2.12234D+00
        45    1.23428D-14  1.23D-14  0.00D+00  1.00D+00    2.12935D+00
        46    6.16569D-15  6.17D-15  0.00D+00  1.00D+00    2.13393D+00
        47    6.24191D-15  6.24D-15  0.00D+00  1.00D+00    2.14831D+00
        48    6.44950D-15  6.45D-15  0.00D+00  1.00D+00    2.15631D+00
        49    6.16835D-15  6.17D-15  0.00D+00  1.00D+00    2.15788D+00
        50    6.97122D-15  6.97D-15  0.00D+00  1.00D+00    2.17906D+00
        51    7.69274D-15  7.69D-15  0.00D+00  1.00D+00    2.19174D+00
        52    6.74235D-15  6.74D-15  0.00D+00  1.00D+00    2.20206D+00
        53    6.79786D-15  6.80D-15  0.00D+00  1.00D+00    2.24312D+00
        54    7.32207D-15  7.32D-15  0.00D+00  1.00D+00    2.26792D+00
        55    1.12799D-14  1.13D-14  0.00D+00  1.00D+00    2.28332D+00
        56    6.42082D-15  6.42D-15  0.00D+00  1.00D+00    2.32364D+00
        57    1.61956D-14  1.62D-14  0.00D+00  1.00D+00    2.33949D+00
        58    1.21150D-14  1.21D-14  0.00D+00  1.00D+00    2.64323D+00
        59    1.02783D-14  1.03D-14  0.00D+00  1.00D+00    2.68507D+00
        60    1.04320D-14  1.04D-14  0.00D+00  1.00D+00    2.70873D+00
        61    8.93787D-15  8.94D-15  0.00D+00  1.00D+00    2.77566D+00
        62    1.25114D-14  1.25D-14  0.00D+00  1.00D+00    2.78876D+00
        63    1.20930D-14  1.21D-14  0.00D+00  1.00D+00    2.81887D+00
        64    1.62277D-14  1.62D-14  0.00D+00  1.00D+00    2.83901D+00
        65    1.10387D-14  1.10D-14  0.00D+00  1.00D+00    2.85065D+00
        66    1.42405D-14  1.42D-14  0.00D+00  1.00D+00    2.87917D+00
        67    7.34199D-15  7.34D-15  0.00D+00  1.00D+00    2.90180D+00
        68    1.27712D-14  1.28D-14  0.00D+00  1.00D+00    2.92397D+00
        69    1.14347D-14  1.14D-14  0.00D+00  1.00D+00    2.93058D+00
        70    2.14989D-14  2.15D-14  0.00D+00  1.00D+00    2.94195D+00
        71    1.10872D-14  1.11D-14  0.00D+00  1.00D+00    2.96056D+00
        72    1.01243D-14  1.01D-14  0.00D+00  1.00D+00    3.00309D+00
        73    1.40465D-14  1.40D-14  0.00D+00  1.00D+00    3.01347D+00
        74    1.07996D-14  1.08D-14  0.00D+00  1.00D+00    3.05087D+00
        75    1.72472D-14  1.72D-14  0.00D+00  1.00D+00    3.06375D+00
        76    1.24047D-14  1.24D-14  0.00D+00  1.00D+00    3.12649D+00
        77    7.97484D-15  7.97D-15  0.00D+00  1.00D+00    3.13395D+00
        78    1.16497D-14  1.16D-14  0.00D+00  1.00D+00    3.17841D+00
        79    1.31876D-14  1.32D-14  0.00D+00  1.00D+00    3.27783D+00
        80    1.05821D-14  1.06D-14  0.00D+00  1.00D+00    3.33005D+00
        81    1.15763D-14  1.16D-14  0.00D+00  1.00D+00    3.33756D+00
        82    1.69569D-14  1.70D-14  0.00D+00  1.00D+00    3.39561D+00
        83    2.25679D-14  2.26D-14  0.00D+00  1.00D+00    3.40949D+00
        84    2.74384D-14  2.74D-14  0.00D+00  1.00D+00    3.48311D+00
        85    1.94632D-14  1.95D-14  0.00D+00  1.00D+00    3.55372D+00
        86    1.67995D-14  1.68D-14  0.00D+00  1.00D+00    3.59836D+00
        87    9.58750D-15  9.59D-15  0.00D+00  1.00D+00    3.68270D+00
        88    2.13137D-14  2.13D-14  0.00D+00  1.00D+00    3.68404D+00
        89    1.54262D-14  1.54D-14  0.00D+00  1.00D+00    3.74372D+00
        90    1.74087D-14  1.74D-14  0.00D+00  1.00D+00    3.81450D+00
        91    1.59609D-14  1.60D-14  0.00D+00  1.00D+00    4.19696D+00
        92    1.62288D-14  1.62D-14  0.00D+00  1.00D+00    4.20079D+00
        93    2.49224D-14  2.49D-14  0.00D+00  1.00D+00    4.23170D+00
        94    2.16486D-14  2.16D-14  0.00D+00  1.00D+00    4.25525D+00
        95    1.29982D-14  1.30D-14  0.00D+00  1.00D+00    4.26560D+00
        96    2.89735D-14  2.90D-14  0.00D+00  1.00D+00    4.34688D+00
        97    2.85291D-14  2.85D-14  0.00D+00  1.00D+00    4.34987D+00
        98    9.87147D-15  9.87D-15  0.00D+00  1.00D+00    4.37926D+00
        99    1.30163D-14  1.30D-14  0.00D+00  1.00D+00    4.85629D+00
       100    3.09839D-14  3.10D-14  0.00D+00  1.00D+00    4.86245D+00
       101    1.24389D-14  1.24D-14  0.00D+00  1.00D+00    4.90950D+00
       102    1.71134D-14  1.71D-14  0.00D+00  1.00D+00    4.92867D+00
       103    1.77903D-14  1.78D-14  0.00D+00  1.00D+00    4.95332D+00
       104    1.91928D-14  1.92D-14  0.00D+00  1.00D+00    5.10192D+00
       105    5.41469D-15  5.41D-15  0.00D+00  1.00D+00   -3.21922D-01

 *** THE REQUESTED  104 SOLUTION VECTORS CONVERGED

 Convergence of RSP solution vectors, threshold = 1.00D-03
 ---------------------------------------------------------------
 (dimension of paired reduced space:  208)
 RSP solution vector no.    1; norm of residual   4.19D-15
 RSP solution vector no.    2; norm of residual   4.93D-15
 RSP solution vector no.    3; norm of residual   5.68D-15
 RSP solution vector no.    4; norm of residual   8.01D-15
 RSP solution vector no.    5; norm of residual   5.54D-15
 RSP solution vector no.    6; norm of residual   4.58D-15
 RSP solution vector no.    7; norm of residual   4.73D-15
 RSP solution vector no.    8; norm of residual   5.26D-15
 RSP solution vector no.    9; norm of residual   6.06D-15
 RSP solution vector no.   10; norm of residual   9.99D-15
 RSP solution vector no.   11; norm of residual   7.08D-15
 RSP solution vector no.   12; norm of residual   6.26D-15
 RSP solution vector no.   13; norm of residual   6.53D-15
 RSP solution vector no.   14; norm of residual   4.83D-15
 RSP solution vector no.   15; norm of residual   7.37D-15
 RSP solution vector no.   16; norm of residual   6.53D-15
 RSP solution vector no.   17; norm of residual   6.30D-15
 RSP solution vector no.   18; norm of residual   5.47D-15
 RSP solution vector no.   19; norm of residual   6.64D-15
 RSP solution vector no.   20; norm of residual   5.76D-15
 RSP solution vector no.   21; norm of residual   7.29D-15
 RSP solution vector no.   22; norm of residual   1.06D-14
 RSP solution vector no.   23; norm of residual   6.06D-15
 RSP solution vector no.   24; norm of residual   6.77D-15
 RSP solution vector no.   25; norm of residual   5.68D-15
 RSP solution vector no.   26; norm of residual   1.48D-14
 RSP solution vector no.   27; norm of residual   7.59D-15
 RSP solution vector no.   28; norm of residual   7.78D-15
 RSP solution vector no.   29; norm of residual   6.31D-15
 RSP solution vector no.   30; norm of residual   1.53D-14
 RSP solution vector no.   31; norm of residual   9.89D-15
 RSP solution vector no.   32; norm of residual   5.23D-15
 RSP solution vector no.   33; norm of residual   7.03D-15
 RSP solution vector no.   34; norm of residual   5.61D-15
 RSP solution vector no.   35; norm of residual   7.91D-15
 RSP solution vector no.   36; norm of residual   7.99D-15
 RSP solution vector no.   37; norm of residual   1.03D-14
 RSP solution vector no.   38; norm of residual   1.23D-14
 RSP solution vector no.   39; norm of residual   6.01D-15
 RSP solution vector no.   40; norm of residual   6.49D-15
 RSP solution vector no.   41; norm of residual   1.02D-14
 RSP solution vector no.   42; norm of residual   9.27D-15
 RSP solution vector no.   43; norm of residual   6.89D-15
 RSP solution vector no.   44; norm of residual   7.85D-15
 RSP solution vector no.   45; norm of residual   1.23D-14
 RSP solution vector no.   46; norm of residual   6.17D-15
 RSP solution vector no.   47; norm of residual   6.24D-15
 RSP solution vector no.   48; norm of residual   6.45D-15
 RSP solution vector no.   49; norm of residual   6.17D-15
 RSP solution vector no.   50; norm of residual   6.97D-15
 RSP solution vector no.   51; norm of residual   7.69D-15
 RSP solution vector no.   52; norm of residual   6.74D-15
 RSP solution vector no.   53; norm of residual   6.80D-15
 RSP solution vector no.   54; norm of residual   7.32D-15
 RSP solution vector no.   55; norm of residual   1.13D-14
 RSP solution vector no.   56; norm of residual   6.42D-15
 RSP solution vector no.   57; norm of residual   1.62D-14
 RSP solution vector no.   58; norm of residual   1.21D-14
 RSP solution vector no.   59; norm of residual   1.03D-14
 RSP solution vector no.   60; norm of residual   1.04D-14
 RSP solution vector no.   61; norm of residual   8.94D-15
 RSP solution vector no.   62; norm of residual   1.25D-14
 RSP solution vector no.   63; norm of residual   1.21D-14
 RSP solution vector no.   64; norm of residual   1.62D-14
 RSP solution vector no.   65; norm of residual   1.10D-14
 RSP solution vector no.   66; norm of residual   1.42D-14
 RSP solution vector no.   67; norm of residual   7.34D-15
 RSP solution vector no.   68; norm of residual   1.28D-14
 RSP solution vector no.   69; norm of residual   1.14D-14
 RSP solution vector no.   70; norm of residual   2.15D-14
 RSP solution vector no.   71; norm of residual   1.11D-14
 RSP solution vector no.   72; norm of residual   1.01D-14
 RSP solution vector no.   73; norm of residual   1.40D-14
 RSP solution vector no.   74; norm of residual   1.08D-14
 RSP solution vector no.   75; norm of residual   1.72D-14
 RSP solution vector no.   76; norm of residual   1.24D-14
 RSP solution vector no.   77; norm of residual   7.97D-15
 RSP solution vector no.   78; norm of residual   1.16D-14
 RSP solution vector no.   79; norm of residual   1.32D-14
 RSP solution vector no.   80; norm of residual   1.06D-14
 RSP solution vector no.   81; norm of residual   1.16D-14
 RSP solution vector no.   82; norm of residual   1.70D-14
 RSP solution vector no.   83; norm of residual   2.26D-14
 RSP solution vector no.   84; norm of residual   2.74D-14
 RSP solution vector no.   85; norm of residual   1.95D-14
 RSP solution vector no.   86; norm of residual   1.68D-14
 RSP solution vector no.   87; norm of residual   9.59D-15
 RSP solution vector no.   88; norm of residual   2.13D-14
 RSP solution vector no.   89; norm of residual   1.54D-14
 RSP solution vector no.   90; norm of residual   1.74D-14
 RSP solution vector no.   91; norm of residual   1.60D-14
 RSP solution vector no.   92; norm of residual   1.62D-14
 RSP solution vector no.   93; norm of residual   2.49D-14
 RSP solution vector no.   94; norm of residual   2.16D-14
 RSP solution vector no.   95; norm of residual   1.30D-14
 RSP solution vector no.   96; norm of residual   2.90D-14
 RSP solution vector no.   97; norm of residual   2.85D-14
 RSP solution vector no.   98; norm of residual   9.87D-15
 RSP solution vector no.   99; norm of residual   1.30D-14
 RSP solution vector no.  100; norm of residual   3.10D-14
 RSP solution vector no.  101; norm of residual   1.24D-14
 RSP solution vector no.  102; norm of residual   1.71D-14
 RSP solution vector no.  103; norm of residual   1.78D-14
 RSP solution vector no.  104; norm of residual   1.92D-14

 *** RSPCTL MICROITERATIONS CONVERGED

@ Singlet transition operator label: XDIPLEN 
@ STATE NO:    1 *TRANSITION MOMENT: -3.64968270E-15 *ENERGY(eV):   8.7599457    
@ STATE NO:    2 *TRANSITION MOMENT:  2.55841169E-14 *ENERGY(eV):   10.875311    
@ STATE NO:    3 *TRANSITION MOMENT: -0.59898208     *ENERGY(eV):   11.177051    
@ STATE NO:    4 *TRANSITION MOMENT:  4.03371024E-14 *ENERGY(eV):   13.114129    
@ STATE NO:    5 *TRANSITION MOMENT:  1.06384779E-14 *ENERGY(eV):   14.874323    
@ STATE NO:    6 *TRANSITION MOMENT: -0.53918013     *ENERGY(eV):   18.493545    
@ STATE NO:    7 *TRANSITION MOMENT: -4.55154089E-02 *ENERGY(eV):   25.260814    
@ STATE NO:    8 *TRANSITION MOMENT:  2.93506146E-15 *ENERGY(eV):   26.374942    
@ STATE NO:    9 *TRANSITION MOMENT: -2.00763990E-15 *ENERGY(eV):   26.469030    
@ STATE NO:   10 *TRANSITION MOMENT: -2.57619715E-02 *ENERGY(eV):   28.743331    
@ STATE NO:   11 *TRANSITION MOMENT:  1.03257547E-15 *ENERGY(eV):   29.031124    
@ STATE NO:   12 *TRANSITION MOMENT: -7.65923702E-16 *ENERGY(eV):   30.115508    
@ STATE NO:   13 *TRANSITION MOMENT:  5.24744339E-15 *ENERGY(eV):   31.065110    
@ STATE NO:   14 *TRANSITION MOMENT:  8.20807021E-16 *ENERGY(eV):   31.106823    
@ STATE NO:   15 *TRANSITION MOMENT:  5.42568211E-02 *ENERGY(eV):   31.967227    

@ Singlet transition operator label: YDIPLEN 
@ STATE NO:    1 *TRANSITION MOMENT: -2.86422466E-14 *ENERGY(eV):   8.7599457    
@ STATE NO:    2 *TRANSITION MOMENT: -2.46093890E-14 *ENERGY(eV):   10.875311    
@ STATE NO:    3 *TRANSITION MOMENT: -8.16735888E-17 *ENERGY(eV):   11.177051    
@ STATE NO:    4 *TRANSITION MOMENT:  0.63905295     *ENERGY(eV):   13.114129    
@ STATE NO:    5 *TRANSITION MOMENT: -0.93388550     *ENERGY(eV):   14.874323    
@ STATE NO:    6 *TRANSITION MOMENT: -3.69456203E-14 *ENERGY(eV):   18.493545    
@ STATE NO:    7 *TRANSITION MOMENT:  2.22168393E-16 *ENERGY(eV):   25.260814    
@ STATE NO:    8 *TRANSITION MOMENT: -7.36295264E-16 *ENERGY(eV):   26.374942    
@ STATE NO:    9 *TRANSITION MOMENT:  1.51547864E-16 *ENERGY(eV):   26.469030    
@ STATE NO:   10 *TRANSITION MOMENT:  1.33101434E-15 *ENERGY(eV):   28.743331    
@ STATE NO:   11 *TRANSITION MOMENT:  2.30690458E-15 *ENERGY(eV):   29.031124    
@ STATE NO:   12 *TRANSITION MOMENT:  1.57183322E-15 *ENERGY(eV):   30.115508    
@ STATE NO:   13 *TRANSITION MOMENT: -3.78446013E-02 *ENERGY(eV):   31.065110    
@ STATE NO:   14 *TRANSITION MOMENT:  2.15618136E-02 *ENERGY(eV):   31.106823    
@ STATE NO:   15 *TRANSITION MOMENT: -1.60885055E-14 *ENERGY(eV):   31.967227    

@ Singlet transition operator label: ZDIPLEN 
@ STATE NO:    1 *TRANSITION MOMENT: -0.33172701     *ENERGY(eV):   8.7599457    
@ STATE NO:    2 *TRANSITION MOMENT: -4.98063145E-15 *ENERGY(eV):   10.875311    
@ STATE NO:    3 *TRANSITION MOMENT: -7.47256603E-15 *ENERGY(eV):   11.177051    
@ STATE NO:    4 *TRANSITION MOMENT:  2.86640897E-15 *ENERGY(eV):   13.114129    
@ STATE NO:    5 *TRANSITION MOMENT: -2.91317728E-15 *ENERGY(eV):   14.874323    
@ STATE NO:    6 *TRANSITION MOMENT: -1.66519330E-15 *ENERGY(eV):   18.493545    
@ STATE NO:    7 *TRANSITION MOMENT:  3.39952168E-15 *ENERGY(eV):   25.260814    
@ STATE NO:    8 *TRANSITION MOMENT:  2.98559211E-15 *ENERGY(eV):   26.374942    
@ STATE NO:    9 *TRANSITION MOMENT: -3.12594142E-02 *ENERGY(eV):   26.469030    
@ STATE NO:   10 *TRANSITION MOMENT: -1.80929403E-15 *ENERGY(eV):   28.743331    
@ STATE NO:   11 *TRANSITION MOMENT: -2.57712681E-16 *ENERGY(eV):   29.031124    
@ STATE NO:   12 *TRANSITION MOMENT: -4.42356058E-02 *ENERGY(eV):   30.115508    
@ STATE NO:   13 *TRANSITION MOMENT:  5.02303138E-15 *ENERGY(eV):   31.065110    
@ STATE NO:   14 *TRANSITION MOMENT: -2.10967827E-15 *ENERGY(eV):   31.106823    
@ STATE NO:   15 *TRANSITION MOMENT: -9.59703057E-15 *ENERGY(eV):   31.967227    


 **************************************************************************************
 *** @ Excit. operator sym 1 & ref. state sym 1 => excited state symmetry 1  ( A  ) ***
 **************************************************************************************



 @ Excited state no:    1 in symmetry 1  ( A  ) - singlet excitation
 -------------------------------------------------------------------

@ Excitation energy :  0.32192209     au
@                       8.7599457     eV;   70653.731     cm-1;   845.20631     kJ / mol

@ Total energy :       -75.709062     au

@ Operator label: XDIPLEN ; Transition moment : -3.64968270E-15 au
@ Oscillator strength (LENGTH)   :  2.85870759E-30  (X-polarization)

@ Operator label: YDIPLEN ; Transition moment : -2.86422466E-14 au
@ Oscillator strength (LENGTH)   :  1.76065262E-28  (Y-polarization)

@ Operator label: ZDIPLEN ; Transition moment : -0.33172701     au
@ Oscillator strength (LENGTH)   :  2.36168079E-02  (Z-polarization)
@ Total oscillator strength (LENGTH)   :  2.36168079E-02

 Eigenvector for state no.  1

      Index(conf)                         Z operator          Y operator
      ----------                      --------------      --------------
          16                            0.9846308009        0.0000000000
          79                           -0.1059651270        0.0000000000

      103 elements with absolute value ≤ 1.00D-01 are not printed.

 Printout of coefficients in interval  3.1623E-01 to  1.0000E+00
 ===============================================================

  Coefficient of CSF no.        16 is      0.98463080    9.84630801E-01
  Orbital          1   2   3   4   5
  Spin coupling    2   2   2   1  -1

 Printout of coefficients in interval  1.0000E-01 to  3.1623E-01
 ===============================================================

  Coefficient of CSF no.        79 is     -0.10596513   -1.05965127E-01
  Orbital          1   3   2   4   5   6
  Spin coupling    2   2   1  -1   1  -1

 Norm of printed CI vector ..      0.98072642

 Magnitude of CI coefficients
 ============================
 ( Ranges are relative to norm of vector :  1.00E+00 )

  10- 1 to 10- 0         2    0.98072642E+00      0.9807264222
  10- 2 to 10- 1         5    0.19062298E-01      0.9997887201
  10- 3 to 10- 2        10    0.21068504E-03      0.9999994051
  10- 4 to 10- 3         3    0.59489822E-06      1.0000000000
  Number of coefficients less than 10^-11 times norm is           85


 @ Excited state no:    2 in symmetry 1  ( A  ) - singlet excitation
 -------------------------------------------------------------------

@ Excitation energy :  0.39966034     au
@                       10.875311     eV;   87715.305     cm-1;   1049.3081     kJ / mol

@ Total energy :       -75.631324     au

@ Operator label: XDIPLEN ; Transition moment :  2.55841169E-14 au
@ Oscillator strength (LENGTH)   :  1.74397661E-28  (X-polarization)

@ Operator label: YDIPLEN ; Transition moment : -2.46093890E-14 au
@ Oscillator strength (LENGTH)   :  1.61362070E-28  (Y-polarization)

@ Operator label: ZDIPLEN ; Transition moment : -4.98063145E-15 au
@ Oscillator strength (LENGTH)   :  6.60949999E-30  (Z-polarization)
@ Total oscillator strength (LENGTH)   :  3.42369230E-28

 Eigenvector for state no.  2

      Index(conf)                         Z operator          Y operator
      ----------                      --------------      --------------
          17                           -0.9844524938        0.0000000000
          49                            0.1217365450        0.0000000000

      103 elements with absolute value ≤ 1.00D-01 are not printed.

 Printout of coefficients in interval  3.1623E-01 to  1.0000E+00
 ===============================================================

  Coefficient of CSF no.        17 is     -0.98445249   -9.84452494E-01
  Orbital          1   2   3   4   6
  Spin coupling    2   2   2   1  -1

 Printout of coefficients in interval  1.0000E-01 to  3.1623E-01
 ===============================================================

  Coefficient of CSF no.        49 is      0.12173655    1.21736545E-01
  Orbital          1   3   6   2   4
  Spin coupling    2   2   2   1  -1

 Printout of coefficients in interval  1.0000E-01 to  1.0000E-01
 ===============================================================
   ( no coefficients )

 Norm of printed CI vector ..      0.98396650

 Magnitude of CI coefficients
 ============================
 ( Ranges are relative to norm of vector :  1.00E+00 )

  10- 1 to 10- 0         2    0.98396650E+00      0.9839664990
  10- 2 to 10- 1         6    0.15786414E-01      0.9997529129
  10- 3 to 10- 2        11    0.24683313E-03      0.9999997460
  10- 4 to 10- 3         1    0.25398133E-06      1.0000000000
  Number of coefficients less than 10^-11 times norm is           85


 @ Excited state no:    3 in symmetry 1  ( A  ) - singlet excitation
 -------------------------------------------------------------------

@ Excitation energy :  0.41074908     au
@                       11.177051     eV;   90149.002     cm-1;   1078.4215     kJ / mol

@ Total energy :       -75.620235     au

@ Operator label: XDIPLEN ; Transition moment : -0.59898208     au
@ Oscillator strength (LENGTH)   :  9.82455769E-02  (X-polarization)

@ Operator label: YDIPLEN ; Transition moment : -8.16735888E-17 au
@ Oscillator strength (LENGTH)   :  1.82662173E-33  (Y-polarization)

@ Operator label: ZDIPLEN ; Transition moment : -7.47256603E-15 au
@ Oscillator strength (LENGTH)   :  1.52906118E-29  (Z-polarization)
@ Total oscillator strength (LENGTH)   :  9.82455769E-02

 Eigenvector for state no.  3

      Index(conf)                         Z operator          Y operator
      ----------                      --------------      --------------
           3                           -0.1075784611        0.0000000000
          19                            0.9807774580        0.0000000000

      103 elements with absolute value ≤ 1.00D-01 are not printed.

 Printout of coefficients in interval  3.1623E-01 to  1.0000E+00
 ===============================================================

  Coefficient of CSF no.        19 is      0.98077746    9.80777458E-01
  Orbital          1   2   4   3   5
  Spin coupling    2   2   2   1  -1

 Printout of coefficients in interval  1.0000E-01 to  3.1623E-01
 ===============================================================

  Coefficient of CSF no.         3 is     -0.10757846   -1.07578461E-01
  Orbital          1   2   4   5
  Spin coupling    2   2   2   2

 Norm of printed CI vector ..      0.97349755

 Magnitude of CI coefficients
 ============================
 ( Ranges are relative to norm of vector :  1.00E+00 )

  10- 1 to 10- 0         2    0.97349755E+00      0.9734975475
  10- 2 to 10- 1        13    0.26337388E-01      0.9998349350
  10- 3 to 10- 2        11    0.16197292E-03      0.9999969080
  10- 4 to 10- 3         9    0.30830060E-05      0.9999999910
  10- 5 to 10- 4         1    0.89638890E-08      0.9999999999
  10- 6 to 10- 5         1    0.73192873E-10      1.0000000000
  Number of coefficients less than 10^-11 times norm is           68


 @ Excited state no:    4 in symmetry 1  ( A  ) - singlet excitation
 -------------------------------------------------------------------

@ Excitation energy :  0.48193539     au
@                       13.114129     eV;   105772.59     cm-1;   1265.3212     kJ / mol

@ Total energy :       -75.549049     au

@ Operator label: XDIPLEN ; Transition moment :  4.03371024E-14 au
@ Oscillator strength (LENGTH)   :  5.22765541E-28  (X-polarization)

@ Operator label: YDIPLEN ; Transition moment :  0.63905295     au
@ Oscillator strength (LENGTH)   :  0.13121130      (Y-polarization)

@ Operator label: ZDIPLEN ; Transition moment :  2.86640897E-15 au
@ Oscillator strength (LENGTH)   :  2.63981727E-30  (Z-polarization)
@ Total oscillator strength (LENGTH)   :  0.13121130    

 Eigenvector for state no.  4

      Index(conf)                         Z operator          Y operator
      ----------                      --------------      --------------
          20                            0.9848871670        0.0000000000
          21                           -0.1020432433        0.0000000000
          55                           -0.1111600366        0.0000000000

      102 elements with absolute value ≤ 1.00D-01 are not printed.

 Printout of coefficients in interval  3.1623E-01 to  1.0000E+00
 ===============================================================

  Coefficient of CSF no.        20 is      0.98488717    9.84887167E-01
  Orbital          1   2   4   3   6
  Spin coupling    2   2   2   1  -1

 Printout of coefficients in interval  1.0000E-01 to  3.1623E-01
 ===============================================================

  Coefficient of CSF no.        21 is     -0.10204324   -1.02043243E-01
  Orbital          1   2   4   5   6
  Spin coupling    2   2   2   1  -1

  Coefficient of CSF no.        55 is     -0.11116004   -1.11160037E-01
  Orbital          1   4   6   2   3
  Spin coupling    2   2   2   1  -1

 Norm of printed CI vector ..      0.99277211

 Magnitude of CI coefficients
 ============================
 ( Ranges are relative to norm of vector :  1.00E+00 )

  10- 1 to 10- 0         3    0.99277211E+00      0.9927721089
  10- 2 to 10- 1         8    0.70627503E-02      0.9998348592
  10- 3 to 10- 2        12    0.16454753E-03      0.9999994067
  10- 4 to 10- 3         3    0.58220111E-06      0.9999999889
  10- 5 to 10- 4         2    0.11104066E-07      1.0000000000
  Number of coefficients less than 10^-11 times norm is           77


 @ Excited state no:    5 in symmetry 1  ( A  ) - singlet excitation
 -------------------------------------------------------------------

@ Excitation energy :  0.54662133     au
@                       14.874323     eV;   119969.51     cm-1;   1435.1541     kJ / mol

@ Total energy :       -75.484363     au

@ Operator label: XDIPLEN ; Transition moment :  1.06384779E-14 au
@ Oscillator strength (LENGTH)   :  4.12433857E-29  (X-polarization)

@ Operator label: YDIPLEN ; Transition moment : -0.93388550     au
@ Oscillator strength (LENGTH)   :  0.31782099      (Y-polarization)

@ Operator label: ZDIPLEN ; Transition moment : -2.91317728E-15 au
@ Oscillator strength (LENGTH)   :  3.09263840E-30  (Z-polarization)
@ Total oscillator strength (LENGTH)   :  0.31782099    

 Eigenvector for state no.  5

      Index(conf)                         Z operator          Y operator
      ----------                      --------------      --------------
          22                            0.9881942871        0.0000000000
          24                            0.1247682855        0.0000000000

      103 elements with absolute value ≤ 1.00D-01 are not printed.

 Printout of coefficients in interval  3.1623E-01 to  1.0000E+00
 ===============================================================

  Coefficient of CSF no.        22 is      0.98819429    9.88194287E-01
  Orbital          1   3   4   2   5
  Spin coupling    2   2   2   1  -1

 Printout of coefficients in interval  1.0000E-01 to  3.1623E-01
 ===============================================================

  Coefficient of CSF no.        24 is      0.12476829    1.24768286E-01
  Orbital          1   3   4   5   6
  Spin coupling    2   2   2   1  -1

 Norm of printed CI vector ..      0.99209507

 Magnitude of CI coefficients
 ============================
 ( Ranges are relative to norm of vector :  1.00E+00 )

  10- 1 to 10- 0         2    0.99209507E+00      0.9920950742
  10- 2 to 10- 1         8    0.75784129E-02      0.9996734871
  10- 3 to 10- 2        10    0.32377366E-03      0.9999972608
  10- 4 to 10- 3         8    0.27392342E-05      1.0000000000
  Number of coefficients less than 10^-11 times norm is           77


 @ Excited state no:    6 in symmetry 1  ( A  ) - singlet excitation
 -------------------------------------------------------------------

@ Excitation energy :  0.67962528     au
@                       18.493545     eV;   149160.51     cm-1;   1784.3559     kJ / mol

@ Total energy :       -75.351359     au

@ Operator label: XDIPLEN ; Transition moment : -0.53918013     au
@ Oscillator strength (LENGTH)   :  0.13171827      (X-polarization)

@ Operator label: YDIPLEN ; Transition moment : -3.69456203E-14 au
@ Oscillator strength (LENGTH)   :  6.18449429E-28  (Y-polarization)

@ Operator label: ZDIPLEN ; Transition moment : -1.66519330E-15 au
@ Oscillator strength (LENGTH)   :  1.25634113E-30  (Z-polarization)
@ Total oscillator strength (LENGTH)   :  0.13171827    

 Eigenvector for state no.  6

      Index(conf)                         Z operator          Y operator
      ----------                      --------------      --------------
           8                           -0.1315221314        0.0000000000
          23                           -0.9810033675        0.0000000000

      103 elements with absolute value ≤ 1.00D-01 are not printed.

 Printout of coefficients in interval  3.1623E-01 to  1.0000E+00
 ===============================================================

  Coefficient of CSF no.        23 is     -0.98100337   -9.81003368E-01
  Orbital          1   3   4   2   6
  Spin coupling    2   2   2   1  -1

 Printout of coefficients in interval  1.0000E-01 to  3.1623E-01
 ===============================================================

  Coefficient of CSF no.         8 is     -0.13152213   -1.31522131E-01
  Orbital          1   3   4   6
  Spin coupling    2   2   2   2

 Norm of printed CI vector ..      0.97966568

 Magnitude of CI coefficients
 ============================
 ( Ranges are relative to norm of vector :  1.00E+00 )

  10- 1 to 10- 0         2    0.97966568E+00      0.9796656781
  10- 2 to 10- 1        14    0.19930406E-01      0.9995960837
  10- 3 to 10- 2        16    0.40373853E-03      0.9999998223
  10- 4 to 10- 3         3    0.17581938E-06      0.9999999981
  10- 5 to 10- 4         1    0.18992608E-08      1.0000000000
  10- 6 to 10- 5         1    0.12507616E-10      1.0000000000
  Number of coefficients less than 10^-11 times norm is           68


 @ Excited state no:    7 in symmetry 1  ( A  ) - singlet excitation
 -------------------------------------------------------------------

@ Excitation energy :  0.92831786     au
@                       25.260814     eV;   203742.22     cm-1;   2437.2982     kJ / mol

@ Total energy :       -75.102667     au

@ Operator label: XDIPLEN ; Transition moment : -4.55154089E-02 au
@ Oscillator strength (LENGTH)   :  1.28210131E-03  (X-polarization)

@ Operator label: YDIPLEN ; Transition moment :  2.22168393E-16 au
@ Oscillator strength (LENGTH)   :  3.05471008E-32  (Y-polarization)

@ Operator label: ZDIPLEN ; Transition moment :  3.39952168E-15 au
@ Oscillator strength (LENGTH)   :  7.15222351E-30  (Z-polarization)
@ Total oscillator strength (LENGTH)   :  1.28210131E-03

 Eigenvector for state no.  7

      Index(conf)                         Z operator          Y operator
      ----------                      --------------      --------------
           2                           -0.8918950377        0.0000000000
           3                            0.1641231094        0.0000000000
           6                            0.3190424223        0.0000000000
          32                           -0.2196997089        0.0000000000

      101 elements with absolute value ≤ 1.00D-01 are not printed.

 Printout of coefficients in interval  3.1623E-01 to  1.0000E+00
 ===============================================================

  Coefficient of CSF no.         2 is     -0.89189504   -8.91895038E-01
  Orbital          1   2   3   5
  Spin coupling    2   2   2   2

  Coefficient of CSF no.         6 is      0.31904242    3.19042422E-01
  Orbital          1   2   3   6
  Spin coupling    2   2   2   2

 Printout of coefficients in interval  1.0000E-01 to  3.1623E-01
 ===============================================================

  Coefficient of CSF no.         3 is      0.16412311    1.64123109E-01
  Orbital          1   2   4   5
  Spin coupling    2   2   2   2

  Coefficient of CSF no.        32 is     -0.21969971   -2.19699709E-01
  Orbital          1   3   5   2   6
  Spin coupling    2   2   2   1  -1

 Norm of printed CI vector ..      0.97246918

 Magnitude of CI coefficients
 ============================
 ( Ranges are relative to norm of vector :  1.00E+00 )

  10- 1 to 10- 0         4    0.97246918E+00      0.9724691825
  10- 2 to 10- 1        16    0.27088215E-01      0.9995573971
  10- 3 to 10- 2        15    0.44160661E-03      0.9999990037
  10- 4 to 10- 3         2    0.99625365E-06      1.0000000000
  Number of coefficients less than 10^-11 times norm is           68


 @ Excited state no:    8 in symmetry 1  ( A  ) - singlet excitation
 -------------------------------------------------------------------

@ Excitation energy :  0.96926132     au
@                       26.374942     eV;   212728.27     cm-1;   2544.7952     kJ / mol

@ Total energy :       -75.061723     au

@ Operator label: XDIPLEN ; Transition moment :  2.93506146E-15 au
@ Oscillator strength (LENGTH)   :  5.56652317E-30  (X-polarization)

@ Operator label: YDIPLEN ; Transition moment : -7.36295264E-16 au
@ Oscillator strength (LENGTH)   :  3.50310888E-31  (Y-polarization)

@ Operator label: ZDIPLEN ; Transition moment :  2.98559211E-15 au
@ Oscillator strength (LENGTH)   :  5.75984198E-30  (Z-polarization)
@ Total oscillator strength (LENGTH)   :  1.16766760E-29

 Eigenvector for state no.  8

      Index(conf)                         Z operator          Y operator
      ----------                      --------------      --------------
          30                           -0.1472398245        0.0000000000
          31                            0.1078576271        0.0000000000
          76                           -0.9565083606        0.0000000000
[...]
  Orbital          4   5   6   1   3
  Spin coupling    2   2   2   1  -1

 Printout of coefficients in interval  1.0000E-01 to  3.1623E-01
 ===============================================================

  Coefficient of CSF no.        13 is     -0.15487345   -1.54873451E-01
  Orbital          1   4   5   6
  Spin coupling    2   2   2   2

  Coefficient of CSF no.        62 is     -0.13416002   -1.34160021E-01
  Orbital          3   4   6   1   5
  Spin coupling    2   2   2   1  -1

  Coefficient of CSF no.        67 is      0.17075890    1.70758895E-01
  Orbital          2   5   6   1   3
  Spin coupling    2   2   2   1  -1

  Coefficient of CSF no.        94 is      0.24078703    2.40787034E-01
  Orbital          4   5   1   2   3   6
  Spin coupling    2   2   1   1  -1  -1

  Coefficient of CSF no.        95 is      0.12081587    1.20815871E-01
  Orbital          4   5   1   2   3   6
  Spin coupling    2   2   1  -1   1  -1

 Printout of coefficients in interval  1.0000E-01 to  1.0000E-01
 ===============================================================
   ( no coefficients )

 Norm of printed CI vector ..      0.97136399

 Magnitude of CI coefficients
 ============================
 ( Ranges are relative to norm of vector :  1.00E+00 )

  10- 1 to 10- 0         6    0.97136399E+00      0.9713639931
  10- 2 to 10- 1        19    0.28421755E-01      0.9997857478
  10- 3 to 10- 2        11    0.21417404E-03      0.9999999218
  10- 4 to 10- 3         1    0.78154304E-07      1.0000000000
  Number of coefficients less than 10^-11 times norm is           68


 @ Excited state no:   99 in symmetry 1  ( A  ) - singlet excitation
 -------------------------------------------------------------------

@ Excitation energy :   4.8562906     au
@                       132.14639     eV;   1065832.6     cm-1;   12750.189     kJ / mol

@ Total energy :       -71.174694     au

@ Operator label: XDIPLEN ; Transition moment : -2.59246539E-05 au
@ Oscillator strength (LENGTH)   :  2.17590208E-09  (X-polarization)

@ Operator label: YDIPLEN ; Transition moment : -4.17473282E-17 au
@ Oscillator strength (LENGTH)   :  5.64248982E-33  (Y-polarization)

@ Operator label: ZDIPLEN ; Transition moment :  6.52048026E-18 au
@ Oscillator strength (LENGTH)   :  1.37648848E-34  (Z-polarization)
@ Total oscillator strength (LENGTH)   :  2.17590208E-09

 Eigenvector for state no. 99

      Index(conf)                         Z operator          Y operator
      ----------                      --------------      --------------
          12                            0.8353652519        0.0000000000
          14                           -0.4747320581        0.0000000000
          53                           -0.1267614744        0.0000000000
          67                           -0.1617242912        0.0000000000

      101 elements with absolute value ≤ 1.00D-01 are not printed.

 Printout of coefficients in interval  3.1623E-01 to  1.0000E+00
 ===============================================================

  Coefficient of CSF no.        12 is      0.83536525    8.35365252E-01
  Orbital          2   3   5   6
  Spin coupling    2   2   2   2

  Coefficient of CSF no.        14 is     -0.47473206   -4.74732058E-01
  Orbital          2   4   5   6
  Spin coupling    2   2   2   2

 Printout of coefficients in interval  1.0000E-01 to  3.1623E-01
 ===============================================================

  Coefficient of CSF no.        53 is     -0.12676147   -1.26761474E-01
  Orbital          2   3   6   1   5
  Spin coupling    2   2   2   1  -1

  Coefficient of CSF no.        67 is     -0.16172429   -1.61724291E-01
  Orbital          2   5   6   1   3
  Spin coupling    2   2   2   1  -1

 Norm of printed CI vector ..      0.96542885

 Magnitude of CI coefficients
 ============================
 ( Ranges are relative to norm of vector :  1.00E+00 )

  10- 1 to 10- 0         4    0.96542885E+00      0.9654288488
  10- 2 to 10- 1        12    0.34089576E-01      0.9995184246
  10- 3 to 10- 2        16    0.48022550E-03      0.9999986501
  10- 4 to 10- 3         5    0.13498911E-05      1.0000000000
  Number of coefficients less than 10^-11 times norm is           68


 @ Excited state no:  100 in symmetry 1  ( A  ) - singlet excitation
 -------------------------------------------------------------------

@ Excitation energy :   4.8624516     au
@                       132.31404     eV;   1067184.8     cm-1;   12766.365     kJ / mol

@ Total energy :       -71.168533     au

@ Operator label: XDIPLEN ; Transition moment :  3.82278322E-16 au
@ Oscillator strength (LENGTH)   :  4.73721802E-31  (X-polarization)

@ Operator label: YDIPLEN ; Transition moment :  8.52921969E-17 au
@ Oscillator strength (LENGTH)   :  2.35821085E-32  (Y-polarization)

@ Operator label: ZDIPLEN ; Transition moment : -2.50670939E-06 au
@ Oscillator strength (LENGTH)   :  2.03691079E-11  (Z-polarization)
@ Total oscillator strength (LENGTH)   :  2.03691079E-11

 Eigenvector for state no.100

      Index(conf)                         Z operator          Y operator
      ----------                      --------------      --------------
          54                            0.1311263112        0.0000000000
          66                           -0.1071709845        0.0000000000
          68                            0.1106608627        0.0000000000
          69                           -0.9638359394        0.0000000000
          98                            0.1230005118        0.0000000000
          99                           -0.1038985001        0.0000000000

       99 elements with absolute value ≤ 1.00D-01 are not printed.

 Printout of coefficients in interval  3.1623E-01 to  1.0000E+00
 ===============================================================

  Coefficient of CSF no.        69 is     -0.96383594   -9.63835939E-01
  Orbital          2   5   6   3   4
  Spin coupling    2   2   2   1  -1

 Printout of coefficients in interval  1.0000E-01 to  3.1623E-01
 ===============================================================

  Coefficient of CSF no.        54 is      0.13112631    1.31126311E-01
  Orbital          2   3   6   4   5
  Spin coupling    2   2   2   1  -1

  Coefficient of CSF no.        66 is     -0.10717098   -1.07170984E-01
  Orbital          1   5   6   3   4
  Spin coupling    2   2   2   1  -1

  Coefficient of CSF no.        68 is      0.11066086    1.10660863E-01
  Orbital          2   5   6   1   4
  Spin coupling    2   2   2   1  -1

  Coefficient of CSF no.        98 is      0.12300051    1.23000512E-01
  Orbital          2   6   1   3   4   5
  Spin coupling    2   2   1   1  -1  -1

  Coefficient of CSF no.        99 is     -0.10389850   -1.03898500E-01
  Orbital          2   6   1   3   4   5
  Spin coupling    2   2   1  -1   1  -1

 Norm of printed CI vector ..      0.99582930

 Magnitude of CI coefficients
 ============================
 ( Ranges are relative to norm of vector :  1.00E+00 )

  10- 1 to 10- 0         6    0.99582930E+00      0.9958292982
  10- 2 to 10- 1         6    0.38673729E-02      0.9996966711
  10- 3 to 10- 2         7    0.30236893E-03      0.9999990401
  10- 4 to 10- 3         1    0.95994030E-06      1.0000000000
  Number of coefficients less than 10^-11 times norm is           85


 @ Excited state no:  101 in symmetry 1  ( A  ) - singlet excitation
 -------------------------------------------------------------------

@ Excitation energy :   4.9095003     au
@                       133.59430     eV;   1077510.8     cm-1;   12889.891     kJ / mol

@ Total energy :       -71.121484     au

@ Operator label: XDIPLEN ; Transition moment :  7.06167259E-17 au
@ Oscillator strength (LENGTH)   :  1.63215420E-32  (X-polarization)

@ Operator label: YDIPLEN ; Transition moment :  3.08230764E-16 au
@ Oscillator strength (LENGTH)   :  3.10955323E-31  (Y-polarization)

@ Operator label: ZDIPLEN ; Transition moment :  1.06722924E-16 au
@ Oscillator strength (LENGTH)   :  3.72787601E-32  (Z-polarization)
@ Total oscillator strength (LENGTH)   :  3.64555625E-31

 Eigenvector for state no.101

      Index(conf)                         Z operator          Y operator
      ----------                      --------------      --------------
          36                            0.2030283116        0.0000000000
          72                            0.9507091020        0.0000000000
         100                           -0.1269317443        0.0000000000
         105                            0.1222297878        0.0000000000

      101 elements with absolute value ≤ 1.00D-01 are not printed.

 Printout of coefficients in interval  3.1623E-01 to  1.0000E+00
 ===============================================================

  Coefficient of CSF no.        72 is      0.95070910    9.50709102E-01
  Orbital          3   5   6   2   4
  Spin coupling    2   2   2   1  -1

 Printout of coefficients in interval  1.0000E-01 to  3.1623E-01
 ===============================================================

  Coefficient of CSF no.        36 is      0.20302831    2.03028312E-01
  Orbital          2   3   5   4   6
  Spin coupling    2   2   2   1  -1

  Coefficient of CSF no.       100 is     -0.12693174   -1.26931744E-01
  Orbital          3   6   1   2   4   5
  Spin coupling    2   2   1   1  -1  -1

  Coefficient of CSF no.       105 is      0.12222979    1.22229788E-01
  Orbital          5   6   1   2   3   4
  Spin coupling    2   2   1  -1   1  -1

 Norm of printed CI vector ..      0.97612008

 Magnitude of CI coefficients
 ============================
 ( Ranges are relative to norm of vector :  1.00E+00 )

  10- 1 to 10- 0         4    0.97612008E+00      0.9761200807
  10- 2 to 10- 1         9    0.23698779E-01      0.9998188595
  10- 3 to 10- 2         6    0.18035224E-03      0.9999992117
  10- 4 to 10- 3         1    0.78830167E-06      1.0000000000
  Number of coefficients less than 10^-11 times norm is           85


 @ Excited state no:  102 in symmetry 1  ( A  ) - singlet excitation
 -------------------------------------------------------------------

@ Excitation energy :   4.9286663     au
@                       134.11583     eV;   1081717.2     cm-1;   12940.211     kJ / mol

@ Total energy :       -71.102318     au

@ Operator label: XDIPLEN ; Transition moment :  9.21717599E-05 au
@ Oscillator strength (LENGTH)   :  2.79147610E-08  (X-polarization)

@ Operator label: YDIPLEN ; Transition moment :  3.24865625E-17 au
@ Oscillator strength (LENGTH)   :  3.46773318E-33  (Y-polarization)

@ Operator label: ZDIPLEN ; Transition moment :  2.79009225E-17 au
@ Oscillator strength (LENGTH)   :  2.55785122E-33  (Z-polarization)
@ Total oscillator strength (LENGTH)   :  2.79147610E-08

 Eigenvector for state no.102

      Index(conf)                         Z operator          Y operator
      ----------                      --------------      --------------
          10                           -0.1041579228        0.0000000000
          12                           -0.3962864291        0.0000000000
          14                           -0.7448738463        0.0000000000
          15                            0.4527036259        0.0000000000
          45                           -0.1250233494        0.0000000000
          59                            0.1301465212        0.0000000000
          60                           -0.1476073046        0.0000000000

       98 elements with absolute value ≤ 1.00D-01 are not printed.

 Printout of coefficients in interval  3.1623E-01 to  1.0000E+00
 ===============================================================

  Coefficient of CSF no.        12 is     -0.39628643   -3.96286429E-01
  Orbital          2   3   5   6
  Spin coupling    2   2   2   2

  Coefficient of CSF no.        14 is     -0.74487385   -7.44873846E-01
  Orbital          2   4   5   6
  Spin coupling    2   2   2   2

  Coefficient of CSF no.        15 is      0.45270363    4.52703626E-01
  Orbital          3   4   5   6
  Spin coupling    2   2   2   2

 Printout of coefficients in interval  1.0000E-01 to  3.1623E-01
 ===============================================================

  Coefficient of CSF no.        10 is     -0.10415792   -1.04157923E-01
  Orbital          1   2   5   6
  Spin coupling    2   2   2   2

  Coefficient of CSF no.        45 is     -0.12502335   -1.25023349E-01
  Orbital          3   4   5   2   6
  Spin coupling    2   2   2   1  -1

  Coefficient of CSF no.        59 is      0.13014652    1.30146521E-01
  Orbital          2   4   6   1   5
  Spin coupling    2   2   2   1  -1

  Coefficient of CSF no.        60 is     -0.14760730   -1.47607305E-01
  Orbital          2   4   6   3   5
  Spin coupling    2   2   2   1  -1

 Norm of printed CI vector ..      0.98202630

 Magnitude of CI coefficients
 ============================
 ( Ranges are relative to norm of vector :  1.00E+00 )

  10- 1 to 10- 0         7    0.98202630E+00      0.9820262978
  10- 2 to 10- 1        14    0.17603831E-01      0.9996301291
  10- 3 to 10- 2        14    0.36939279E-03      0.9999995219
  10- 4 to 10- 3         2    0.47812073E-06      1.0000000000
  Number of coefficients less than 10^-11 times norm is           68


 @ Excited state no:  103 in symmetry 1  ( A  ) - singlet excitation
 -------------------------------------------------------------------

@ Excitation energy :   4.9533213     au
@                       134.78673     eV;   1087128.4     cm-1;   13004.943     kJ / mol

@ Total energy :       -71.077663     au

@ Operator label: XDIPLEN ; Transition moment :  2.43645941E-17 au
@ Oscillator strength (LENGTH)   :  1.96030480E-33  (X-polarization)

@ Operator label: YDIPLEN ; Transition moment : -6.29759610E-05 au
@ Oscillator strength (LENGTH)   :  1.30964880E-08  (Y-polarization)

@ Operator label: ZDIPLEN ; Transition moment : -2.49323656E-16 au
@ Oscillator strength (LENGTH)   :  2.05273182E-31  (Z-polarization)
@ Total oscillator strength (LENGTH)   :  1.30964880E-08

 Eigenvector for state no.103

      Index(conf)                         Z operator          Y operator
      ----------                      --------------      --------------
          42                           -0.1928006708        0.0000000000
          63                            0.1125145550        0.0000000000
          73                            0.1850510336        0.0000000000
          75                           -0.9386663900        0.0000000000
         102                            0.1365308143        0.0000000000

      100 elements with absolute value ≤ 1.00D-01 are not printed.

 Printout of coefficients in interval  3.1623E-01 to  1.0000E+00
 ===============================================================

  Coefficient of CSF no.        75 is     -0.93866639   -9.38666390E-01
  Orbital          4   5   6   2   3
  Spin coupling    2   2   2   1  -1

 Printout of coefficients in interval  1.0000E-01 to  3.1623E-01
 ===============================================================

  Coefficient of CSF no.        42 is     -0.19280067   -1.92800671E-01
  Orbital          2   4   5   3   6
  Spin coupling    2   2   2   1  -1

  Coefficient of CSF no.        63 is      0.11251455    1.12514555E-01
  Orbital          3   4   6   2   5
  Spin coupling    2   2   2   1  -1

  Coefficient of CSF no.        73 is      0.18505103    1.85051034E-01
  Orbital          4   5   6   1   2
  Spin coupling    2   2   2   1  -1

  Coefficient of CSF no.       102 is      0.13653081    1.36530814E-01
  Orbital          4   6   1   2   3   5
  Spin coupling    2   2   1   1  -1  -1

 Norm of printed CI vector ..      0.98381076

 Magnitude of CI coefficients
 ============================
 ( Ranges are relative to norm of vector :  1.00E+00 )

  10- 1 to 10- 0         5    0.98381076E+00      0.9838107638
  10- 2 to 10- 1        12    0.15970777E-01      0.9997815410
  10- 3 to 10- 2         8    0.21796665E-03      0.9999995077
  10- 4 to 10- 3         3    0.49231494E-06      1.0000000000
  Number of coefficients less than 10^-11 times norm is           77


 @ Excited state no:  104 in symmetry 1  ( A  ) - singlet excitation
 -------------------------------------------------------------------

@ Excitation energy :   5.1019160     au
@                       138.83020     eV;   1119741.1     cm-1;   13395.079     kJ / mol

@ Total energy :       -70.929068     au

@ Operator label: XDIPLEN ; Transition moment : -1.95899710E-04 au
@ Oscillator strength (LENGTH)   :  1.30529789E-07  (X-polarization)

@ Operator label: YDIPLEN ; Transition moment :  8.86752279E-17 au
@ Oscillator strength (LENGTH)   :  2.67452509E-32  (Y-polarization)

@ Operator label: ZDIPLEN ; Transition moment : -8.36419320E-18 au
@ Oscillator strength (LENGTH)   :  2.37952439E-34  (Z-polarization)
@ Total oscillator strength (LENGTH)   :  1.30529789E-07

 Eigenvector for state no.104

      Index(conf)                         Z operator          Y operator
      ----------                      --------------      --------------
          12                           -0.2683978860        0.0000000000
          13                           -0.1141380155        0.0000000000
          14                           -0.3639457797        0.0000000000
          15                           -0.8189163948        0.0000000000
          45                            0.2374547487        0.0000000000
          62                            0.1302307917        0.0000000000

       99 elements with absolute value ≤ 1.00D-01 are not printed.

 Printout of coefficients in interval  3.1623E-01 to  1.0000E+00
 ===============================================================

  Coefficient of CSF no.        14 is     -0.36394578   -3.63945780E-01
  Orbital          2   4   5   6
  Spin coupling    2   2   2   2

  Coefficient of CSF no.        15 is     -0.81891639   -8.18916395E-01
  Orbital          3   4   5   6
  Spin coupling    2   2   2   2

 Printout of coefficients in interval  1.0000E-01 to  3.1623E-01
 ===============================================================

  Coefficient of CSF no.        12 is     -0.26839789   -2.68397886E-01
  Orbital          2   3   5   6
  Spin coupling    2   2   2   2

  Coefficient of CSF no.        13 is     -0.11413802   -1.14138015E-01
  Orbital          1   4   5   6
  Spin coupling    2   2   2   2

  Coefficient of CSF no.        45 is      0.23745475    2.37454749E-01
  Orbital          3   4   5   2   6
  Spin coupling    2   2   2   1  -1

  Coefficient of CSF no.        62 is      0.13023079    1.30230792E-01
  Orbital          3   4   6   1   5
  Spin coupling    2   2   2   1  -1

 Norm of printed CI vector ..      0.96149032

 Magnitude of CI coefficients
 ============================
 ( Ranges are relative to norm of vector :  1.00E+00 )

  10- 1 to 10- 0         6    0.96149032E+00      0.9614903208
  10- 2 to 10- 1        17    0.37995385E-01      0.9994857054
  10- 3 to 10- 2        13    0.51373116E-03      0.9999994365
  10- 4 to 10- 3         1    0.56346119E-06      1.0000000000
  Number of coefficients less than 10^-11 times norm is           68


 Time used in polarization propagator calculation is      0.17 CPU seconds for symmetry 1

  Total CPU  time used in RESPONSE:   0.21 seconds
  Total wall time used in RESPONSE:   0.78 seconds


                   .-------------------------------------------.
                   | End of Dynamic Property Section (RESPONS) |
                   `-------------------------------------------'

  Total CPU  time used in DALTON:   0.49 seconds
  Total wall time used in DALTON:   4.65 seconds

 NOTE:    1 warnings have been issued.
 Check output, result, and error files for "WARNING".

 
     Date and time (Linux)  : Tue Jul  7 15:31:27 2026
     Host name              : n-62-31-24                              
