

     ************************************************************************
     *************** Dalton - An Electronic Structure Program ***************
     ************************************************************************

    This is output from DALTON release Dalton2024.0-dev (2024)
         ( Web site: http://daltonprogram.org )

   ----------------------------------------------------------------------------

    NOTE:
     
    Dalton is an experimental code for the evaluation of molecular
    properties using (MC)SCF, DFT, CI, and CC wave functions.
    The authors accept no responsibility for the performance of
    the code or for the correctness of the results.
     
    The code (in whole or part) is provided under a licence and
    is not to be reproduced for further distribution without
    the written permission of the authors or their representatives.
     
    See the home page "http://daltonprogram.org" for further information.
     
    If results obtained with this code are published,
    the appropriate citations would be both of:
     
       K. Aidas, C. Angeli, K. L. Bak, V. Bakken,
       R. Bast, L. Boman, O. Christiansen, R. Cimiraglia,
       S. Coriani, P. Dahle, E. K. Dalskov, U. Ekstroem,
       T. Enevoldsen, J. J. Eriksen, P. Ettenhuber, B. Fernandez,
       L. Ferrighi, H. Fliegl, L. Frediani, K. Hald, A. Halkier,
       C. Haettig, H. Heiberg, T. Helgaker, A. C. Hennum,
       H. Hettema, E. Hjertenaes, S. Hoest, I.-M. Hoeyvik,
       M. F. Iozzi, B. Jansik, H. J. Aa. Jensen, D. Jonsson,
       P. Joergensen, J. Kauczor, S. Kirpekar,
       T. Kjaergaard, W. Klopper, S. Knecht, R. Kobayashi, H. Koch,
       J. Kongsted, A. Krapp, K. Kristensen, A. Ligabue,
       O. B. Lutnaes, J. I. Melo, K. V. Mikkelsen, R. H. Myhre,
       C. Neiss, C. B. Nielsen, P. Norman, J. Olsen,
       J. M. H. Olsen, A. Osted, M. J. Packer, F. Pawlowski,
       T. B. Pedersen, P. F. Provasi, S. Reine, Z. Rinkevicius,
       T. A. Ruden, K. Ruud, V. Rybkin, P. Salek, C. C. M. Samson,
       A. Sanchez de Meras, T. Saue, S. P. A. Sauer,
       B. Schimmelpfennig, K. Sneskov, A. H. Steindal,
       K. O. Sylvester-Hvid, P. R. Taylor, A. M. Teale,
       E. I. Tellgren, D. P. Tew, A. J. Thorvaldsen, L. Thoegersen,
       O. Vahtras, M. A. Watson, D. J. D. Wilson, M. Ziolkowski
       and H. Agren,
       "The Dalton quantum chemistry program system",
       WIREs Comput. Mol. Sci. 2014, 4:269-284 (doi: 10.1002/wcms.1172)
     
    and
     
       Dalton, a molecular electronic structure program,
       Release Dalton2024.0-dev (2024), see http://daltonprogram.org
   ----------------------------------------------------------------------------

    Authors in alphabetical order (Major contribution(s) in parenthesis):

  Kestutis Aidas,              Vilnius University,        Lithuania   (QM/MM)
  Celestino Angeli,            University of Ferrara,     Italy       (NEVPT2)
  Juan J. Aucar,               Northeast National UniversiArgentina   (LRESC, Relativistic Effects on EFG)
  Keld L. Bak,                 UNI-C,                     Denmark     (AOSOPPA, non-adiabatic coupling, magnetic properties)
  Vebjoern Bakken,             University of Oslo,        Norway      (DALTON; geometry optimizer, symmetry detection)
  Radovan Bast,                UiT The Arctic U. of NorwayNorway      (DALTON installation and execution frameworks)
  Pablo Baudin,                University of Valencia,    Spain       (Cholesky excitation energies)
  Linus Boman,                 NTNU,                      Norway      (Cholesky decomposition and subsystems)
  Bruno N. Cabral Tenorio,     Technical Univ. of Denmark,Denmark     (Lanczos-based CC methods)
  Ove Christiansen,            Aarhus University,         Denmark     (CC module)
  Renzo Cimiraglia,            University of Ferrara,     Italy       (NEVPT2)
  Sonia Coriani,               Technical Univ. of Denmark,Denmark     (CC and RESPONS modules)
  Janusz Cukras,               University of Warsaw,      Poland      (MChD in RESPONS)
  Paal Dahle,                  University of Oslo,        Norway      (Parallelization)
  Erik K. Dalskov,             UNI-C,                     Denmark     (SOPPA)
  Thomas Enevoldsen,           Univ. of Southern Denmark, Denmark     (SOPPA)
  Janus J. Eriksen,            Aarhus University,         Denmark     (Polarizable embedding, TDA)
  Rasmus Faber,                Technical Univ. of Denmark,Denmark     (Vib.avg. NMR w. SOPPA, parallel AO-SOPPA, CVS-CC and EOMCC)
  Tobias Fahleson,             KTH Stockholm,             Sweden      (Damped cubic response)
  Berta Fernandez,             U. of Santiago de CompostelSpain       (Doublet spin, ESR in RESPONS)
  Lara Ferrighi,               Aarhus University,         Denmark     (PCM Cubic response)
  Heike Fliegl,                University of Oslo,        Norway      (CCSD(R12))
  Luca Frediani,               UiT The Arctic U. of NorwayNorway      (PCM)
  Emmanuel Fromager,           Univ. Strasbourg,          France      (MC-srDFT)
  Bin Gao,                     UiT The Arctic U. of NorwayNorway      (Gen1Int library)
  Andre S. P. Gomes,           CNRS/Universite de Lille,  France      (Frozen density embedding)
  Christof Haettig,            Ruhr-University Bochum,    Germany     (CC module)
  Kasper Hald,                 Aarhus University,         Denmark     (CC module)
  Asger Halkier,               Aarhus University,         Denmark     (CC module)
  Frederik Beyer Hansen,       University of Copenhagen,  Denmark     (Parallel AO-SOPPA)
  Erik D. Hedegaard,           Univ. of Southern Denmark, Denmark     (Polarizable embedding, QM/MM, and MC-srDFT)
  Hanne Heiberg,               University of Oslo,        Norway      (Geometry analysis, selected one-electron integrals)
  Trygve Helgaker,             University of Oslo,        Norway      (DALTON; ABACUS, ERI, DFT modules, London, and much more)
  Alf Christian Hennum,        University of Oslo,        Norway      (Parity violation)
  Hinne Hettema,               University of Auckland,    New Zealand (Quadratic response in RESPONS; SIRIUS supersymmetry)
  Andreas E. Hillers-Bendtsen, University of Copenhagen,  Denmark     (MP3)
  Eirik Hjertenaes,            NTNU,                      Norway      (Cholesky decomposition)
  Nicolai Machholdt Hoeyer,    Aarhus University,         Denmark     (MP3)
  Pi A. B. Haase,              University of Copenhagen,  Denmark     (Triplet AO-SOPPA)
  Maria Francesca Iozzi,       University of Oslo,        Norway      (RPA)
  Christoph Jacob,             TU Braunschweig            Germany     (Frozen density embedding)
  Brano Jansik,                Technical Univ. of Ostrava Czech Rep.  (DFT cubic response)
  Hans Joergen Aa. Jensen,     Univ. of Southern Denmark, Denmark     (DALTON; SIRIUS, RESPONS, ABACUS, MC-srDFT, and much more)
  Dan Jonsson,                 UiT The Arctic U. of NorwayNorway      (Cubic response in RESPONS module)
  Poul Joergensen,             Aarhus University,         Denmark     (RESPONS, ABACUS, and CC modules)
  Maciej Kaminski,             University of Warsaw,      Poland      (CPPh in RESPONS)
  Joanna Kauczor,              Linkoeping University,     Sweden      (Complex polarization propagator (CPP) module)
  Sheela Kirpekar,             Univ. of Southern Denmark, Denmark     (Mass-velocity & Darwin integrals)
  Frederik Oersted Kjeldal,    Technical Univ. of Denmark,Denmark     (MP3)
  Erik Kjellgren,              Univ. of Southern Denmark, Denmark     (MC-srDFT)
  Wim Klopper,                 KIT Karlsruhe,             Germany     (R12 code in CC, SIRIUS, and ABACUS modules)
  Stefan Knecht,               ETH Zurich,                Switzerland (Parallel CI and MCSCF, MC-srDFT)
  Rika Kobayashi,              Australian National Univ., Australia   (DIIS in CC, London in MCSCF)
  Henrik Koch,                 NTNU,                      Norway      (CC module, Cholesky decomposition)
  Jacob Kongsted,              Univ. of Southern Denmark, Denmark     (Polarizable embedding, polarizable density embedding, QM/MM)
  Andrea Ligabue,              University of Modena,      Italy       (CTOCD, AOSOPPA)
  Nanna H. List,               Univ. of Southern Denmark, Denmark     (Polarizable embedding)
  Ola B. Lutnaes,              University of Oslo,        Norway      (DFT Hessian)
  Juan I. Melo,                University of Buenos Aires,Argentina   (LRESC, Relativistic Effects on NMR Shieldings)
  Kurt V. Mikkelsen,           University of Copenhagen,  Denmark     (MC-SCRF, QM/MM, and MP3)
  Rolf H. Myhre,               NTNU,                      Norway      (Subsystems and CC3)
  Christian Neiss,             Univ. Erlangen-Nuernberg,  Germany     (CCSD(R12))
  Christian B. Nielsen,        University of Copenhagen,  Denmark     (QM/MM)
  Patrick Norman,              KTH Stockholm,             Sweden      (Cubic response and complex frequency response in RESPONS)
  Jeppe Olsen,                 Aarhus University,         Denmark     (SIRIUS CI/density modules)
  Jogvan Magnus H. Olsen,      Aarhus University,         Denmark     (Polarizable embedding and polarizable density embedding)
  Anders Osted,                Copenhagen University,     Denmark     (QM/MM)
  Martin J. Packer,            University of Sheffield,   UK          (SOPPA)
  Filip Pawlowski,             Kazimierz Wielki UniversityPoland      (CC3)
  Morten N. Pedersen,          Univ. of Southern Denmark, Denmark     (Polarizable embedding)
  Thomas B. Pedersen,          University of Oslo,        Norway      (Cholesky decomposition)
  Patricio F. Provasi,         University of Northeastern,Argentina   (Analysis of coupling constants in localized orbitals)
  Peter Reinholdt,             Univ. of Southern Denmark, Denmark     (Polarizable embedding and polarizable density embedding)
  Zilvinas Rinkevicius,        KTH Stockholm,             Sweden      (open-shell DFT, ESR)
  Elias Rudberg,               KTH Stockholm,             Sweden      (DFT grid and basis info)
  Torgeir A. Ruden,            University of Oslo,        Norway      (Numerical derivatives in ABACUS)
  Kenneth Ruud,                UiT The Arctic U. of NorwayNorway      (DALTON; ABACUS magnetic properties and much more)
  Pawel Salek,                 KTH Stockholm,             Sweden      (DALTON; DFT code)
  Claire C. M. Samson,         University of Karlsruhe    Germany     (Boys localization, r12 integrals in ERI)
  Alfredo Sanchez de Meras,    University of Valencia,    Spain       (CC module, Cholesky decomposition)
  Trond Saue,                  Paul Sabatier University,  France      (direct Fock matrix construction)
  Stephan P. A. Sauer,         University of Copenhagen,  Denmark     (SOPPA(CCSD), SOPPA prop., AOSOPPA, vibrational g-factors)
  Bernd Schimmelpfennig,       Forschungszentrum KarlsruheGermany     (AMFI module)
  Anna K. Schnack-Petersen,    University of Copenhagen,  Denmark     (RPA(D) and HRPA(D) properties in AOSOPPA)
  Kristian Sneskov,            Aarhus University,         Denmark     (Polarizable embedding, QM/MM)
  Arnfinn H. Steindal,         UiT The Arctic U. of NorwayNorway      (parallel QM/MM, polarizable embedding)
  Casper Steinmann,            Aalborg University,        Denmark     (QFIT, polarizable embedding)
  K. O. Sylvester-Hvid,        University of Copenhagen,  Denmark     (MC-SCRF)
  Peter R. Taylor,             VLSCI/Univ. of Melbourne,  Australia   (Symmetry handling ABACUS, integral transformation)
  Andrew M. Teale,             University of Nottingham,  England     (DFT-AC, DFT-D)
  David P. Tew,                University of Bristol,     England     (CCSD(R12))
  Julien Toulouse,             Sorbonne Univ.,            France      (MC-srDFT)
  Olav Vahtras,                KTH Stockholm,             Sweden      (Triplet response, spin-orbit, ESR, TDDFT, open-shell DFT)
  Lucas Visscher,              Vrije Universiteit AmsterdaNetherlands (Frozen density embedding)
  David J. Wilson,             La Trobe University,       Australia   (DFT Hessian and DFT magnetizabilities)
  Luna Zamok,                  University of Copenhagen,  Denmark     (Block Lanczos RPA solver in SOPPA module)
  Hans Agren,                  KTH Stockholm,             Sweden      (SIRIUS module, RESPONS, MC-SCRF solvation)
 --------------------------------------------------------------------------------

     Date and time (Linux)  : Tue Jul  7 10:31:26 2026
     Host name              : n-62-31-23                              

 * Work memory size             :   512000000 =  3.815 gigabytes.

 * Directories for basis set searches:
   1) /work3/jochar/DaltonTests
   2) /zhome/d7/7/119775/My_Codes/Dalton_Release/dalton/build_omp_nov24/basis


Compilation information
-----------------------

 Who compiled             | soco
 Host                     | hpclogin1
 System                   | Linux-6.1.112-1.el9.elrepo.x86_64
 CMake generator          | Unix Makefiles
 Processor                | x86_64
 64-bit integers          | OFF
 MPI                      | OFF
 Fortran compiler         | /appl/intel/2023.2.0.49397/compiler/2023.2.0/linux
                          | /bin/intel64/ifort
 Fortran compiler version | ifort (IFORT) 2021.10.0 20230609
 C compiler               | /appl/intel/2023.2.0.49397/compiler/2023.2.0/linux
                          | /bin/intel64/icc
 C compiler version       | icc (ICC) 2021.10.0 20230609
 C++ compiler             | /appl/intel/2023.2.0.49397/compiler/2023.2.0/linux
                          | /bin/intel64/icpc
 C++ compiler version     | icpc (ICC) 2021.10.0 20230609
 Static linking           | OFF
 Last Git revision        | a531ac4fbf115ebda1c90140ce3fd6aa236a2033
 Git branch               | master
 Configuration time       | 2024-11-14 11:23:30.470039

 * Sequential calculation.


   Content of the .dal input file
 ----------------------------------

**DALTON INPUT
.RUN WAVE FUNCTIONS   !tipo di calcolo
.RUN RESPONSE
**INTEGRALS
.DIPLEN               !integrali dell'operatore dipolo elettrico
**WAVE FUNCTION
.HF
.CI
!*PRINT
!.PRINTL
!   0 11
*SCF INP              !parte da Hartree-Fock
.DOUBLY OCCUPIED
4
.THRESH               !soglia di convergenza
 1.0D-10
*CONFIGURATION INPUT
.SPIN MULTIPLICITY
1
.SYMMETRY
1
.INACTIVE ORBITALS !the inner electrons are kept frozen
0
.CAS SPACE
6
.ELECTRONS
8
**RESPONS
*LINEAR
.THCLR
1.0d-9
.DIPLEN
.SINGLE RESIDUE
.ROOTS
300
**END OF INPUT


   Content of the .mol file
 ----------------------------

BASIS
STO-3G
test VQE
dalton test
Atomtypes=2 Angstrom Nosymmetry
Charge=6.0 Atoms=1
O     0.1035000000000000  0.0000000000000000  0.0
Charge=1.0 Atoms=2
H    -0.4640000000000000  0.7956000000000000  0.0
H    -0.4640000000000000  -0.7956000000000000  0.0


       *******************************************************************
       *********** Output from DALTON general input processing ***********
       *******************************************************************

 --------------------------------------------------------------------------------
   Overall default print level:    0
   Print level for DALTON.STAT:    1

    HERMIT 1- and 2-electron integral sections will be executed
    "Old" integral transformation used (limited to max 255 basis functions)
    Wave function sections will be executed (SIRIUS module)
    Dynamic molecular response properties section will be executed (RESPONSE module)
 --------------------------------------------------------------------------------


   ****************************************************************************
   *************** Output of molecule and basis set information ***************
   ****************************************************************************


    The two title cards from your ".mol" input:
    --------------------------------------------------------------------------------
 1: test VQE
 2: dalton test
    --------------------------------------------------------------------------------

  Coordinates are entered in Angstrom and converted to atomic units.
          - Conversion factor : 1 bohr = 0.52917721 A

  Atomic type no.    1
  --------------------
  Nuclear charge:   6.00000
  Number of symmetry independent centers:    1
  Number of basis sets to read;    2
  Basis set file used for this atomic type with Z =   6 :
     "/zhome/d7/7/119775/My_Codes/Dalton_Release/dalton/build_omp_nov24/basis/STO-3G"

  Atomic type no.    2
  --------------------
  Nuclear charge:   1.00000
  Number of symmetry independent centers:    2
  Number of basis sets to read;    2
  Basis set file used for this atomic type with Z =   1 :
     "/zhome/d7/7/119775/My_Codes/Dalton_Release/dalton/build_omp_nov24/basis/STO-3G"


                         SYMGRP: Point group information
                         -------------------------------

@    Point group: C1 


                                 Isotopic Masses
                                 ---------------

                           O          12.000000
                           H           1.007825
                           H           1.007825

                       Total mass:    14.015650 amu
                       Natural abundance:  98.870 %

 Center-of-mass coordinates (a.u.):    0.041357    0.000000    0.000000
 Center-of-mass coordinates (Angs):    0.021885    0.000000    0.000000


  Atoms and basis sets
  --------------------

  Number of atom types :    2
  Total number of atoms:    3

  Basis set used is "STO-3G" from the basis set library.

  label    atoms   charge   prim   cont     basis
  ----------------------------------------------------------------------
  O           1    6.0000    15     5      [6s3p|2s1p]                                        
  H           2    1.0000     3     1      [3s|1s]                                            
  ----------------------------------------------------------------------
  total:      3    8.0000    21     7
  ----------------------------------------------------------------------

  Threshold for neglecting AO integrals:  1.00D-12


  Cartesian Coordinates (a.u.)
  ----------------------------

  Total number of coordinates:    9
  O       :     1  x   0.1955866539    2  y   0.0000000000    3  z   0.0000000000
  H       :     4  x  -0.8768329220    5  y   1.5034661050    6  z   0.0000000000
  H       :     7  x  -0.8768329220    8  y  -1.5034661050    9  z   0.0000000000


   Interatomic separations (in Angstrom):
   --------------------------------------

            O           H           H     
            ------      ------      ------
 O     :    0.000000
 H     :    0.977259    0.000000
 H     :    0.977259    1.591200    0.000000


  Max    interatomic separation is    1.5912 Angstrom (    3.0069 Bohr)
  between atoms    3 and    2, "H     " and "H     ".

  Min HX interatomic separation is    0.9773 Angstrom (    1.8468 Bohr)


  Bond distances (Angstrom):
  --------------------------

                  atom 1     atom 2       distance
                  ------     ------       --------
  bond distance:  H          O            0.977259
  bond distance:  H          O            0.977259


  Bond angles (degrees):
  ----------------------

                  atom 1     atom 2     atom 3         angle
                  ------     ------     ------         -----
  bond angle:     H          O          H            109.000




 Principal moments of inertia (u*A**2) and principal axes
 --------------------------------------------------------

   IA       0.555795          0.000000    1.000000    0.000000
   IB       1.275865          1.000000    0.000000    0.000000
   IC       1.831660          0.000000    0.000000    1.000000


 Rotational constants
 --------------------

@    The molecule is planar.

               A                   B                   C

         909289.8431         396107.0071         275913.0898 MHz
           30.330644           13.212708            9.203470 cm-1


@  Nuclear repulsion energy :    6.830458472614 Hartree


                     .---------------------------------------.
                     | Starting in Integral Section (HERMIT) |
                     `---------------------------------------'



 ***************************************************************************************
 ****************** Output from **INTEGRALS input processing (HERMIT) ******************
 ***************************************************************************************



    *************************************************************************
    ****************** Output from HERMIT input processing ******************
    *************************************************************************


 Default print level:        1

 Calculation of one- and two-electron Hamiltonian integrals.

 The following one-electron property integrals are calculated as requested:
          - overlap integrals
          - dipole length integrals

 Center of mass  (bohr):      0.041357451707      0.000000000000      0.000000000000
 Operator center (bohr):      0.000000000000      0.000000000000      0.000000000000
 Gauge origin    (bohr):      0.000000000000      0.000000000000      0.000000000000
 Dipole origin   (bohr):      0.000000000000      0.000000000000      0.000000000000

Calculation of 2-electron integrals are postponed until they are needed.


     ************************************************************************
     ************************** Output from HERINT **************************
     ************************************************************************



                      Nuclear contribution to dipole moments
                      --------------------------------------

                 au               Debye          C m (/(10**-30)

      x     -0.58014592        -1.47458375        -4.91868195
      y      0.00000000         0.00000000         0.00000000
      z      0.00000000         0.00000000         0.00000000


  Total CPU  time used in HERMIT:   0.01 seconds
  Total wall time used in HERMIT:   0.03 seconds


                        .----------------------------------.
                        | End of Integral Section (HERMIT) |
                        `----------------------------------'



                   .--------------------------------------------.
                   | Starting in Wave Function Section (SIRIUS) |
                   `--------------------------------------------'


     WARNING  Reference state is required for CI response and CI-NO
     WARNING  ".STATE" was not specified for "*CI INPUT",
     WARNING  the reference state is set to be state no.  1

 *** Output from Huckel module :

     Using EWMO model:          T
     Using EHT  model:          F
     Number of Huckel orbitals each symmetry:    7

 EWMO - Energy Weighted Maximum Overlap - is a Huckel type method,
        which normally is better than Extended Huckel Theory.
 Reference: Linderberg and Ohrn, Propagators in Quantum Chemistry (Wiley, 1973)

 Huckel EWMO eigenvalues for symmetry :  1
          -11.347822      -1.217320      -0.652833      -0.453354      -0.406900
           -0.098571      -0.094400

 **********************************************************************
 *SIRIUS* a direct, restricted step, second order MCSCF program       *
 **********************************************************************

 
     Date and time (Linux)  : Tue Jul  7 10:31:26 2026
     Host name              : n-62-31-23                              

 Title lines from ".mol" input file:
     test VQE
     dalton test

 Print level on unit LUPRI =   2 is   0
 Print level on unit LUW4  =   2 is   5

@    Configuration interaction calculation.

@    CI response calculation.

@    CI type: user specified active spaces.
@              Type: complete active space calculation (CAS).

@    This is a combination run starting with
@              a restricted, closed shell Hartree-Fock calculation


 Initial molecular orbitals are obtained according to
 ".MOSTART EWMO  " input option

     Wave function specification
     ============================
@    Wave function type        --- CI ---
@    Number of closed shell electrons           0
@    Number of electrons in active shells       8
@    Total charge of the molecule               0

@    Spin multiplicity and 2 M_S                1         0
@    Total number of symmetries                 1 (point group: C1 )
@    Reference state symmetry                   1 (irrep name : A  )

     Orbital specifications
     ======================
@    Abelian symmetry species          All |    1
@                                          |  A  
                                       --- |  ---
@    Inactive orbitals                   0 |    0
@    Active orbitals                     6 |    6
@    Secondary orbitals                  1 |    1
@    Total number of orbitals            7 |    7
@    Number of basis functions           7 |    7

      -- Initial occupation of symmetries is determined from user input.                      
      -- Initial occupation of symmetries is :
@    Occupied SCF orbitals               4 |    4

     Optimization information
     ========================
@    Number of configurations               105
@    Number of orbital rotations              0
     ------------------------------------------
@    Total number of variables              105

     Maximum number of CI iterations         25
     Threshold for CI convergence      1.00D-05
     Number of CI roots to converge           1

@    Reference state in CI response calculation :       1


 ***********************************************
 ***** DIIS acceleration of SCF iterations *****
 ***********************************************

 C1-DIIS algorithm; max error vectors =    8

 Iter      Total energy        Error norm    Delta(E)  DIIS dim.
 -----------------------------------------------------------------------------

Calculating AOSUPINT

---> (Re)generating AOTWOINT


     ************************************************************************
     ************************** Output from HERINT **************************
     ************************************************************************


 Threshold for neglecting two-electron integrals:  1.00D-12
 HERMIT - Number of two-electron integrals written:         228 ( 56.2% )
 HERMIT - Megabytes written:                              0.137

     (Precalculated AO two-electron integrals are transformed to P-supermatrix elements.
      Threshold for discarding integrals :  1.00D-12 )

@  1    -38.3153895540        5.29790D-01   -3.83D+01    1
      Virial theorem: -V/T =      1.990444
@    MULPOP   O       0.16; H      -0.08; H      -0.08; 
   1  Level shift: doubly occupied orbital energies shifted by -2.00D-01
 -----------------------------------------------------------------------------
@  2    -38.3323874183        1.06389D-01   -1.70D-02    2
      Virial theorem: -V/T =      1.988287
@    MULPOP   O      -0.05; H       0.03; H       0.03; 
   2  Level shift: doubly occupied orbital energies shifted by -5.00D-02
 -----------------------------------------------------------------------------
@  3    -38.3333567627        1.34263D-02   -9.69D-04    3
      Virial theorem: -V/T =      1.987288
@    MULPOP   O      -0.10; H       0.05; H       0.05; 
   3  Level shift: doubly occupied orbital energies shifted by -1.25D-02
 -----------------------------------------------------------------------------
@  4    -38.3333741139        4.37157D-04   -1.74D-05    4
      Virial theorem: -V/T =      1.987149
@    MULPOP   O      -0.10; H       0.05; H       0.05; 
 -----------------------------------------------------------------------------
@  5    -38.3333741391        8.56994D-05   -2.51D-08    5
      Virial theorem: -V/T =      1.987147
@    MULPOP   O      -0.10; H       0.05; H       0.05; 
 -----------------------------------------------------------------------------
@  6    -38.3333741403        1.82722D-06   -1.22D-09    6
      Virial theorem: -V/T =      1.987146
@    MULPOP   O      -0.10; H       0.05; H       0.05; 
 -----------------------------------------------------------------------------
@  7    -38.3333741403        4.06638D-11   -5.33D-13    7

@ *** DIIS converged in   7 iterations !
@     Converged SCF energy, gradient:    -38.333374140285    4.07D-11
    - total time used in SIRFCK :              0.00 seconds

 --- Writing SIRIFC interface file

--------------------------------------------------------------------------------


     .--------------------------------------------------.
     | HF-SCF KT IPs [a.u. & eV] from Koopmans' theorem |
     `--------------------------------------------------'


     HF-SCF KT symmetry 1 ( A  ) in point group C1  -- 4 principal poles with pole strength 1

   ============  ============  ============  ============
      11.004088      0.892749      0.570218      0.308723
     299.436453     24.292945     15.516414      8.400772
   ============  ============  ============  ============

@ Summary of HF-SCF KT ionization potentials [eV]:

@ Symmetry 1 (A  ) :   299.436      24.293      15.516       8.401

  === End of HF-SCF KT output ===
--------------------------------------------------------------------------------


 CPU and wall time for SCF :       0.045       0.225


 ----- Output from SIRIUS CI module (CICTL) -----




 2-el. integral transformation level 0: Total CPU and WALL times (sec)       0.008       0.036

 (CIST1) 8 lowest diagonal elements:

 Element no. Config.no.    Active energy      Total energy

         1 :         16    -45.1736490467    -38.3431905741
         2 :          1    -45.1638326129    -38.3333741403
         3 :          2    -44.9974634487    -38.1670049761
         4 :         19    -44.8615464798    -38.0310880071
         5 :         28    -44.8128137522    -37.9823552796
         6 :         22    -44.5164406306    -37.6859821580
         7 :         31    -44.4986431005    -37.6681846279
         8 :         17    -44.4604266420    -37.6299681694


 (CIST1) number of start vectors is increased from  1 to  2 because of (near) degeneracy

Lowest 2 elements are used as separate start CI vectors.


 Convergence threshold for CI optimization :     0.00001000


 CI root     eigenvalue        residual norm

    1      -38.3333741403        0.1926495197

 CI root     eigenvalue        residual norm

    1      -38.3625490091        0.0561871948

 CI root     eigenvalue        residual norm

    1      -38.3638666491        0.0056685622

 CI root     eigenvalue        residual norm

    1      -38.3638845010        0.0008775035

 CI root     eigenvalue        residual norm

    1      -38.3638848833        0.0001028601

 CI root     eigenvalue        residual norm

    1      -38.3638848892        0.0000142717

 CI root     eigenvalue        residual norm

    1      -38.3638848893        0.0000029749 converged

 The requested root number is now converged.


 *** CI converged in  7 iterations.



@ Final CI energies and residuals in symmetry 1 (irrep A  )
@    1      -38.363884889310626       2.97D-06

 Writing SIRIFC interface file for CI root no. 1

 CPU and wall time for CI :       0.021       0.089


                       .-----------------------------------.
                       | --- Final results from SIRIUS --- |
                       `-----------------------------------'


@    Spin multiplicity:           1
@    Spatial symmetry:            1 ( irrep  A   in C1  )
@    Total charge of molecule:    0

@    This was a CI calculation.
@    State number:                1

@    Final CI energy:             -38.363884889311
@    Nuclear repulsion:             6.830458472614
@    Electronic energy:           -45.194343361925

@    Final gradient norm:           0.000002974913

 
     Date and time (Linux)  : Tue Jul  7 10:31:26 2026
     Host name              : n-62-31-23                              

 Occupancies of natural orbitals
 -------------------------------

 Symmetry 1  ( A  ) -- Total occupation in this symmetry is   8.000000000

   1.999992787   1.992558027   1.997350703   1.870285785   0.132775031
   0.007037667

  Effective numbers of unpaired electrons this symmetry Eqs. 1) and 2):  0.52  0.12

  Total effective number of unpaired electrons :
  Eq. 1) sum(i) [(2 - n_i) n_i]    =  0.5247
  Eq. 2) sum(i) [(2 - n_i) n_i]**2 =  0.1208
 (Reference: M. Head-Gordon, Chemical Physics Letters 372 (2003) 508-511)

  --- NOTE THAT THE OCCUPATION NUMBERS ARE FOR ANALYSIS PURPOSE ONLY
  --- The orbital coefficients have NOT been transformed
  --- to ordered natural orbitals.

File label for MO orbitals:   7Jul26    CIORB  

 (Only coefficients > 0.0100 are printed.)

 Molecular orbitals for symmetry species 1  (A  )
 ------------------------------------------------

    Orbital         1        2        3        4        5        6        7
   1 O   :1s    -0.9928   0.2156   0.0000   0.1331   0.0000  -0.1830  -0.0000
   2 O   :1s    -0.0338  -0.6096  -0.0000  -0.6182  -0.0000   1.3592   0.0000
   3 O   :2px    0.0080   0.1955   0.0000  -0.7978  -0.0000  -0.8512  -0.0000
   4 O   :2py    0.0000   0.0000  -0.5367  -0.0000  -0.0000  -0.0000   1.2132
   5 O   :2pz    0.0000   0.0000   0.0000   0.0000  -1.0000  -0.0000  -0.0000
   6 H   :1s     0.0090  -0.2773  -0.4513   0.1755   0.0000  -1.0317  -0.9653
   7 H   :1s     0.0090  -0.2773   0.4513   0.1755   0.0000  -1.0317   0.9653

 Printout of CI-coefficients abs greater than 0.05000 for root  1
 *** NOTE: this root is the CI reference state ***

 Printout of coefficients in interval  3.1623E-01 to  1.0000E+00
 ===============================================================

  Coefficient of CSF no.         1 is      0.96441190    9.64411898E-01
  Orbital          1   2   3   4
  Spin coupling    2   2   2   2

 Printout of coefficients in interval  1.0000E-01 to  3.1623E-01
 ===============================================================

  Coefficient of CSF no.         2 is     -0.24542521   -2.45425211E-01
  Orbital          1   2   3   5
  Spin coupling    2   2   2   2

 Printout of coefficients in interval  5.0000E-02 to  1.0000E-01
 ===============================================================

  Coefficient of CSF no.        31 is      0.05861332    5.86133209E-02
  Orbital          1   3   5   2   4
  Spin coupling    2   2   2   1  -1

 Norm of printed CI vector ..      0.99375937

 Magnitude of CI coefficients
 ============================
 ( Ranges are relative to norm of vector :  1.00E+00 )

  10- 1 to 10- 0         2    0.99032384E+00      0.9903238439
  10- 2 to 10- 1         7    0.93862191E-02      0.9997100630
  10- 3 to 10- 2        12    0.28821042E-03      0.9999982734
  10- 4 to 10- 3        11    0.16914758E-05      0.9999999649
  10- 5 to 10- 4         7    0.35079932E-07      0.9999999999
  10- 6 to 10- 5         2    0.51157186E-10      1.0000000000
  Number of coefficients less than 10^-11 times norm is           64

  Total CPU  time used in SIRIUS :   0.09 seconds
  Total wall time used in SIRIUS :   0.39 seconds

 
     Date and time (Linux)  : Tue Jul  7 10:31:26 2026
     Host name              : n-62-31-23                              


                     .---------------------------------------.
                     | End of Wave Function Section (SIRIUS) |
                     `---------------------------------------'



                 .------------------------------------------------.
                 | Starting in Dynamic Property Section (RESPONS) |
                 `------------------------------------------------'


 ----------------------------------------------------------------------------------------
  RESPONSE  -  an MCSCF, MC-srDFT, DFT, SOPPA and SOPPA-srDFT response property program
 ----------------------------------------------------------------------------------------

 This is a configuration interaction response calculation.
   Note: this is equivalent to a CI sum-over-states calculation of response properties.


 -------- OUTPUT FROM RESPONSE INPUT PROCESSING --------




  Linear Response single residue calculation
 -------------------------------------------


    4 input options by user.

 Print level                                    : IPRPP  =   2
 Maximum number of iterations for eigenval.eqs. : MAXITP =  60
 Threshold for convergence of eigenvalue eqs.   : THCPP  = 1.000D-03
 Maximum iterations in optimal orbital algorithm: MAXITO =   5

    300 Excitation energies are calculated for symmetry no.    1

      3 property residues are calculated with labels:

               XDIPLEN 
               YDIPLEN 
               ZDIPLEN 

 Old direct access AO file found, SORTA skipped.

 2-el. integral transformation level 4: Total CPU and WALL times (sec)       0.005       0.016


 CI energy            :      -38.363884889310626
 -- inactive part     :        6.830458472614062
 --   active part     :      -45.194343361924687
 -- nuclear repulsion :        6.830458472614062


                         *******************************
                         *** CI response calculation ***
                         *******************************

 ----------------------------------------------------------------
 ----- Linear response calculation
 ----- Symmetry of excitation/property operator(s)    1  ( A  )
 ----------------------------------------------------------------

 Number of excitations of this symmetry          300
 Number of response properties of this symmetry    0
 Number of C6/C8 properties of this symmetry       0


 Perturbation symmetry.     KSYMOP:           1
 Perturbation spin symmetry.TRPLET:           F
 Orbital variables.         KZWOPT:           0
 Configuration variables.   KZCONF:         105
 Total number of variables. KZVAR :         105

 ** RSPVAR ** Number of PP start vectors  300
   exceeds the maximum number of variables  104
   Number of start vectors reset to number of variables



 --- EXCITATION ENERGIES AND TRANSITION MOMENT CALCULATION (MCTDHF) ---

 Operator symmetry = 1  ( A  ); triplet =   F

RSPORT:    1 out of  105 new trial vectors linear dependent

 ** RSPCTL MICROITERATION NUMBER    1

      Root  Residual tot.,    conf., and orb.    Bnorm      Eigenvalue
      ----------------------------------------------------------------
         1    2.25357D-14  2.25D-14  0.00D+00  1.00D+00    6.05882D-02
         2    2.20280D-14  2.20D-14  0.00D+00  1.00D+00    1.83338D-01
         3    1.94550D-14  1.95D-14  0.00D+00  1.00D+00    3.28517D-01
         4    2.46383D-14  2.46D-14  0.00D+00  1.00D+00    3.91822D-01
         5    1.68438D-14  1.68D-14  0.00D+00  1.00D+00    6.81983D-01
         6    1.81969D-14  1.82D-14  0.00D+00  1.00D+00    7.48414D-01
         7    1.48701D-14  1.49D-14  0.00D+00  1.00D+00    7.89292D-01
         8    1.85923D-14  1.86D-14  0.00D+00  1.00D+00    8.16618D-01
         9    2.01192D-14  2.01D-14  0.00D+00  1.00D+00    8.64161D-01
        10    1.79435D-14  1.79D-14  0.00D+00  1.00D+00    9.61242D-01
        11    1.54409D-14  1.54D-14  0.00D+00  1.00D+00    1.01112D+00
        12    1.58075D-14  1.58D-14  0.00D+00  1.00D+00    1.10073D+00
        13    1.57515D-14  1.58D-14  0.00D+00  1.00D+00    1.22720D+00
        14    1.44805D-14  1.45D-14  0.00D+00  1.00D+00    1.28826D+00
        15    2.07870D-14  2.08D-14  0.00D+00  1.00D+00    1.31081D+00
        16    1.47851D-14  1.48D-14  0.00D+00  1.00D+00    1.31863D+00
        17    1.61604D-14  1.62D-14  0.00D+00  1.00D+00    1.33772D+00
        18    2.46883D-14  2.47D-14  0.00D+00  1.00D+00    1.41177D+00
        19    1.77900D-14  1.78D-14  0.00D+00  1.00D+00    1.42456D+00
        20    1.45867D-14  1.46D-14  0.00D+00  1.00D+00    1.50704D+00
        21    1.45378D-14  1.45D-14  0.00D+00  1.00D+00    1.54370D+00
        22    1.60915D-14  1.61D-14  0.00D+00  1.00D+00    1.66437D+00
        23    1.80388D-14  1.80D-14  0.00D+00  1.00D+00    1.66832D+00
        24    1.78454D-14  1.78D-14  0.00D+00  1.00D+00    1.72842D+00
        25    1.52542D-14  1.53D-14  0.00D+00  1.00D+00    1.80230D+00
        26    1.37876D-14  1.38D-14  0.00D+00  1.00D+00    1.80911D+00
        27    1.71676D-14  1.72D-14  0.00D+00  1.00D+00    1.85254D+00
        28    1.50557D-14  1.51D-14  0.00D+00  1.00D+00    1.85704D+00
        29    1.71797D-14  1.72D-14  0.00D+00  1.00D+00    1.93460D+00
        30    1.58920D-14  1.59D-14  0.00D+00  1.00D+00    2.01326D+00
        31    1.35909D-14  1.36D-14  0.00D+00  1.00D+00    2.01688D+00
        32    1.69607D-14  1.70D-14  0.00D+00  1.00D+00    2.04483D+00
        33    1.72124D-14  1.72D-14  0.00D+00  1.00D+00    2.16677D+00
        34    1.76418D-14  1.76D-14  0.00D+00  1.00D+00    2.18840D+00
        35    1.76507D-14  1.77D-14  0.00D+00  1.00D+00    2.23201D+00
        36    1.75881D-14  1.76D-14  0.00D+00  1.00D+00    2.29965D+00
        37    1.92919D-14  1.93D-14  0.00D+00  1.00D+00    2.35214D+00
        38    1.92691D-14  1.93D-14  0.00D+00  1.00D+00    2.35792D+00
        39    1.63803D-14  1.64D-14  0.00D+00  1.00D+00    2.47360D+00
        40    1.78653D-14  1.79D-14  0.00D+00  1.00D+00    2.49240D+00
        41    1.68467D-14  1.68D-14  0.00D+00  1.00D+00    2.62287D+00
        42    2.29589D-14  2.30D-14  0.00D+00  1.00D+00    2.63058D+00
        43    2.48247D-14  2.48D-14  0.00D+00  1.00D+00    2.63570D+00
        44    2.02102D-14  2.02D-14  0.00D+00  1.00D+00    2.69532D+00
        45    2.84168D-14  2.84D-14  0.00D+00  1.00D+00    2.71756D+00
        46    2.43116D-14  2.43D-14  0.00D+00  1.00D+00    2.85600D+00
        47    2.23719D-14  2.24D-14  0.00D+00  1.00D+00    2.87298D+00
        48    3.15485D-14  3.15D-14  0.00D+00  1.00D+00    2.95107D+00
        49    2.68436D-14  2.68D-14  0.00D+00  1.00D+00    3.27497D+00
        50    3.82368D-14  3.82D-14  0.00D+00  1.00D+00    1.03982D+01
        51    3.84497D-14  3.84D-14  0.00D+00  1.00D+00    1.04484D+01
        52    3.02023D-14  3.02D-14  0.00D+00  1.00D+00    1.06506D+01
        53    4.73825D-14  4.74D-14  0.00D+00  1.00D+00    1.10335D+01
        54    4.98114D-14  4.98D-14  0.00D+00  1.00D+00    1.11642D+01
        55    5.57184D-14  5.57D-14  0.00D+00  1.00D+00    1.11780D+01
        56    6.02240D-14  6.02D-14  0.00D+00  1.00D+00    1.11934D+01
        57    5.17197D-14  5.17D-14  0.00D+00  1.00D+00    1.12503D+01
        58    4.59276D-14  4.59D-14  0.00D+00  1.00D+00    1.12899D+01
        59    5.44028D-14  5.44D-14  0.00D+00  1.00D+00    1.13044D+01
        60    4.60085D-14  4.60D-14  0.00D+00  1.00D+00    1.13869D+01
        61    4.56455D-14  4.56D-14  0.00D+00  1.00D+00    1.14514D+01
        62    5.38827D-14  5.39D-14  0.00D+00  1.00D+00    1.15805D+01
        63    4.35025D-14  4.35D-14  0.00D+00  1.00D+00    1.17027D+01
        64    4.91919D-14  4.92D-14  0.00D+00  1.00D+00    1.17444D+01
        65    4.35366D-14  4.35D-14  0.00D+00  1.00D+00    1.18072D+01
        66    5.64348D-14  5.64D-14  0.00D+00  1.00D+00    1.18369D+01
        67    6.27462D-14  6.27D-14  0.00D+00  1.00D+00    1.19266D+01
        68    3.38243D-14  3.38D-14  0.00D+00  1.00D+00    1.20826D+01
        69    5.09114D-14  5.09D-14  0.00D+00  1.00D+00    1.20985D+01
        70    4.00030D-14  4.00D-14  0.00D+00  1.00D+00    1.21170D+01
        71    5.47758D-14  5.48D-14  0.00D+00  1.00D+00    1.21248D+01
        72    5.68596D-14  5.69D-14  0.00D+00  1.00D+00    1.21438D+01
        73    5.08371D-14  5.08D-14  0.00D+00  1.00D+00    1.21466D+01
        74    3.68514D-14  3.69D-14  0.00D+00  1.00D+00    1.22329D+01
        75    6.13276D-14  6.13D-14  0.00D+00  1.00D+00    1.22684D+01
        76    5.51146D-14  5.51D-14  0.00D+00  1.00D+00    1.23348D+01
        77    4.86162D-14  4.86D-14  0.00D+00  1.00D+00    1.23597D+01
        78    4.32177D-14  4.32D-14  0.00D+00  1.00D+00    1.25607D+01
        79    6.56913D-14  6.57D-14  0.00D+00  1.00D+00    1.25936D+01
        80    5.63414D-14  5.63D-14  0.00D+00  1.00D+00    1.26283D+01
        81    7.66433D-14  7.66D-14  0.00D+00  1.00D+00    1.27041D+01
        82    4.74221D-14  4.74D-14  0.00D+00  1.00D+00    1.27085D+01
        83    3.88904D-14  3.89D-14  0.00D+00  1.00D+00    1.27088D+01
        84    6.78166D-14  6.78D-14  0.00D+00  1.00D+00    1.27693D+01
        85    5.65882D-14  5.66D-14  0.00D+00  1.00D+00    1.28265D+01
        86    5.09124D-14  5.09D-14  0.00D+00  1.00D+00    1.28777D+01
        87    4.61117D-14  4.61D-14  0.00D+00  1.00D+00    1.30625D+01
        88    5.14574D-14  5.15D-14  0.00D+00  1.00D+00    1.31246D+01
        89    5.74310D-14  5.74D-14  0.00D+00  1.00D+00    1.32056D+01
        90    1.58498D-13  1.58D-13  0.00D+00  1.00D+00    2.31634D+01
        91    1.02251D-13  1.02D-13  0.00D+00  1.00D+00    2.39464D+01
        92    9.18023D-14  9.18D-14  0.00D+00  1.00D+00    2.39973D+01
        93    7.14275D-14  7.14D-14  0.00D+00  1.00D+00    2.41491D+01
        94    9.11578D-14  9.12D-14  0.00D+00  1.00D+00    2.45186D+01
        95    7.54850D-14  7.55D-14  0.00D+00  1.00D+00    2.48955D+01
        96    7.39057D-14  7.39D-14  0.00D+00  1.00D+00    2.49645D+01
        97    6.18259D-14  6.18D-14  0.00D+00  1.00D+00    2.49669D+01
        98    9.42870D-14  9.43D-14  0.00D+00  1.00D+00    2.50007D+01
        99    8.99581D-14  9.00D-14  0.00D+00  1.00D+00    2.50047D+01
       100    1.04507D-13  1.05D-13  0.00D+00  1.00D+00    2.50849D+01
       101    1.02415D-13  1.02D-13  0.00D+00  1.00D+00    2.55586D+01
       102    9.86339D-14  9.86D-14  0.00D+00  1.00D+00    2.55789D+01
       103    7.38211D-14  7.38D-14  0.00D+00  1.00D+00    2.56316D+01
       104    7.58807D-14  7.59D-14  0.00D+00  1.00D+00    2.60205D+01
       105    2.45609D-14  2.46D-14  0.00D+00  1.00D+00   -6.05882D-02

 *** THE REQUESTED  104 SOLUTION VECTORS CONVERGED

 Convergence of RSP solution vectors, threshold = 1.00D-03
 ---------------------------------------------------------------
 (dimension of paired reduced space:  208)
 RSP solution vector no.    1; norm of residual   2.25D-14
 RSP solution vector no.    2; norm of residual   2.20D-14
 RSP solution vector no.    3; norm of residual   1.95D-14
 RSP solution vector no.    4; norm of residual   2.46D-14
 RSP solution vector no.    5; norm of residual   1.68D-14
 RSP solution vector no.    6; norm of residual   1.82D-14
 RSP solution vector no.    7; norm of residual   1.49D-14
 RSP solution vector no.    8; norm of residual   1.86D-14
 RSP solution vector no.    9; norm of residual   2.01D-14
 RSP solution vector no.   10; norm of residual   1.79D-14
 RSP solution vector no.   11; norm of residual   1.54D-14
 RSP solution vector no.   12; norm of residual   1.58D-14
 RSP solution vector no.   13; norm of residual   1.58D-14
 RSP solution vector no.   14; norm of residual   1.45D-14
 RSP solution vector no.   15; norm of residual   2.08D-14
 RSP solution vector no.   16; norm of residual   1.48D-14
 RSP solution vector no.   17; norm of residual   1.62D-14
 RSP solution vector no.   18; norm of residual   2.47D-14
 RSP solution vector no.   19; norm of residual   1.78D-14
 RSP solution vector no.   20; norm of residual   1.46D-14
 RSP solution vector no.   21; norm of residual   1.45D-14
 RSP solution vector no.   22; norm of residual   1.61D-14
 RSP solution vector no.   23; norm of residual   1.80D-14
 RSP solution vector no.   24; norm of residual   1.78D-14
 RSP solution vector no.   25; norm of residual   1.53D-14
 RSP solution vector no.   26; norm of residual   1.38D-14
 RSP solution vector no.   27; norm of residual   1.72D-14
 RSP solution vector no.   28; norm of residual   1.51D-14
 RSP solution vector no.   29; norm of residual   1.72D-14
 RSP solution vector no.   30; norm of residual   1.59D-14
 RSP solution vector no.   31; norm of residual   1.36D-14
 RSP solution vector no.   32; norm of residual   1.70D-14
 RSP solution vector no.   33; norm of residual   1.72D-14
 RSP solution vector no.   34; norm of residual   1.76D-14
 RSP solution vector no.   35; norm of residual   1.77D-14
 RSP solution vector no.   36; norm of residual   1.76D-14
 RSP solution vector no.   37; norm of residual   1.93D-14
 RSP solution vector no.   38; norm of residual   1.93D-14
 RSP solution vector no.   39; norm of residual   1.64D-14
 RSP solution vector no.   40; norm of residual   1.79D-14
 RSP solution vector no.   41; norm of residual   1.68D-14
 RSP solution vector no.   42; norm of residual   2.30D-14
 RSP solution vector no.   43; norm of residual   2.48D-14
 RSP solution vector no.   44; norm of residual   2.02D-14
 RSP solution vector no.   45; norm of residual   2.84D-14
 RSP solution vector no.   46; norm of residual   2.43D-14
 RSP solution vector no.   47; norm of residual   2.24D-14
 RSP solution vector no.   48; norm of residual   3.15D-14
 RSP solution vector no.   49; norm of residual   2.68D-14
 RSP solution vector no.   50; norm of residual   3.82D-14
 RSP solution vector no.   51; norm of residual   3.84D-14
 RSP solution vector no.   52; norm of residual   3.02D-14
 RSP solution vector no.   53; norm of residual   4.74D-14
 RSP solution vector no.   54; norm of residual   4.98D-14
 RSP solution vector no.   55; norm of residual   5.57D-14
 RSP solution vector no.   56; norm of residual   6.02D-14
 RSP solution vector no.   57; norm of residual   5.17D-14
 RSP solution vector no.   58; norm of residual   4.59D-14
 RSP solution vector no.   59; norm of residual   5.44D-14
 RSP solution vector no.   60; norm of residual   4.60D-14
 RSP solution vector no.   61; norm of residual   4.56D-14
 RSP solution vector no.   62; norm of residual   5.39D-14
 RSP solution vector no.   63; norm of residual   4.35D-14
 RSP solution vector no.   64; norm of residual   4.92D-14
 RSP solution vector no.   65; norm of residual   4.35D-14
 RSP solution vector no.   66; norm of residual   5.64D-14
 RSP solution vector no.   67; norm of residual   6.27D-14
 RSP solution vector no.   68; norm of residual   3.38D-14
 RSP solution vector no.   69; norm of residual   5.09D-14
 RSP solution vector no.   70; norm of residual   4.00D-14
 RSP solution vector no.   71; norm of residual   5.48D-14
 RSP solution vector no.   72; norm of residual   5.69D-14
 RSP solution vector no.   73; norm of residual   5.08D-14
 RSP solution vector no.   74; norm of residual   3.69D-14
 RSP solution vector no.   75; norm of residual   6.13D-14
 RSP solution vector no.   76; norm of residual   5.51D-14
 RSP solution vector no.   77; norm of residual   4.86D-14
 RSP solution vector no.   78; norm of residual   4.32D-14
 RSP solution vector no.   79; norm of residual   6.57D-14
 RSP solution vector no.   80; norm of residual   5.63D-14
 RSP solution vector no.   81; norm of residual   7.66D-14
 RSP solution vector no.   82; norm of residual   4.74D-14
 RSP solution vector no.   83; norm of residual   3.89D-14
 RSP solution vector no.   84; norm of residual   6.78D-14
 RSP solution vector no.   85; norm of residual   5.66D-14
 RSP solution vector no.   86; norm of residual   5.09D-14
 RSP solution vector no.   87; norm of residual   4.61D-14
 RSP solution vector no.   88; norm of residual   5.15D-14
 RSP solution vector no.   89; norm of residual   5.74D-14
 RSP solution vector no.   90; norm of residual   1.58D-13
 RSP solution vector no.   91; norm of residual   1.02D-13
 RSP solution vector no.   92; norm of residual   9.18D-14
 RSP solution vector no.   93; norm of residual   7.14D-14
 RSP solution vector no.   94; norm of residual   9.12D-14
 RSP solution vector no.   95; norm of residual   7.55D-14
 RSP solution vector no.   96; norm of residual   7.39D-14
 RSP solution vector no.   97; norm of residual   6.18D-14
 RSP solution vector no.   98; norm of residual   9.43D-14
 RSP solution vector no.   99; norm of residual   9.00D-14
 RSP solution vector no.  100; norm of residual   1.05D-13
 RSP solution vector no.  101; norm of residual   1.02D-13
 RSP solution vector no.  102; norm of residual   9.86D-14
 RSP solution vector no.  103; norm of residual   7.38D-14
 RSP solution vector no.  104; norm of residual   7.59D-14

 *** RSPCTL MICROITERATIONS CONVERGED

@ Singlet transition operator label: XDIPLEN 
@ STATE NO:    1 *TRANSITION MOMENT: -1.49729544E-15 *ENERGY(eV):   1.6486889    
@ STATE NO:    2 *TRANSITION MOMENT:  0.28765509     *ENERGY(eV):   4.9888910    
@ STATE NO:    3 *TRANSITION MOMENT: -2.18046208E-15 *ENERGY(eV):   8.9394074    
@ STATE NO:    4 *TRANSITION MOMENT: -1.15862464E-15 *ENERGY(eV):   10.662029    
@ STATE NO:    5 *TRANSITION MOMENT: -0.42403433     *ENERGY(eV):   18.557708    
@ STATE NO:    6 *TRANSITION MOMENT:  1.14733708E-14 *ENERGY(eV):   20.365382    
@ STATE NO:    7 *TRANSITION MOMENT:  1.82477271E-02 *ENERGY(eV):   21.477725    
@ STATE NO:    8 *TRANSITION MOMENT:  7.74397378E-05 *ENERGY(eV):   22.221295    
@ STATE NO:    9 *TRANSITION MOMENT:  1.41544689E-15 *ENERGY(eV):   23.515009    
@ STATE NO:   10 *TRANSITION MOMENT:  2.58207092E-15 *ENERGY(eV):   26.156738    
@ STATE NO:   11 *TRANSITION MOMENT: -6.51798479E-15 *ENERGY(eV):   27.513900    
@ STATE NO:   12 *TRANSITION MOMENT:  3.43076258E-15 *ENERGY(eV):   29.952315    
@ STATE NO:   13 *TRANSITION MOMENT:  5.36341891E-15 *ENERGY(eV):   33.393751    
@ STATE NO:   14 *TRANSITION MOMENT: -3.76593334E-15 *ENERGY(eV):   35.055449    
@ STATE NO:   15 *TRANSITION MOMENT: -2.34697250E-14 *ENERGY(eV):   35.669056    

@ Singlet transition operator label: YDIPLEN 
@ STATE NO:    1 *TRANSITION MOMENT: -3.29941365E-16 *ENERGY(eV):   1.6486889    
@ STATE NO:    2 *TRANSITION MOMENT:  8.27842056E-16 *ENERGY(eV):   4.9888910    
@ STATE NO:    3 *TRANSITION MOMENT: -1.03043302E-14 *ENERGY(eV):   8.9394074    
@ STATE NO:    4 *TRANSITION MOMENT:  0.11571484     *ENERGY(eV):   10.662029    
@ STATE NO:    5 *TRANSITION MOMENT: -8.39436884E-15 *ENERGY(eV):   18.557708    
@ STATE NO:    6 *TRANSITION MOMENT:  5.64173369E-15 *ENERGY(eV):   20.365382    
@ STATE NO:    7 *TRANSITION MOMENT:  4.60286473E-15 *ENERGY(eV):   21.477725    
@ STATE NO:    8 *TRANSITION MOMENT:  2.40515306E-15 *ENERGY(eV):   22.221295    
@ STATE NO:    9 *TRANSITION MOMENT:  8.53537235E-16 *ENERGY(eV):   23.515009    
@ STATE NO:   10 *TRANSITION MOMENT:  1.58809327E-14 *ENERGY(eV):   26.156738    
@ STATE NO:   11 *TRANSITION MOMENT:  -1.1934317     *ENERGY(eV):   27.513900    
@ STATE NO:   12 *TRANSITION MOMENT:  2.25100209E-14 *ENERGY(eV):   29.952315    
@ STATE NO:   13 *TRANSITION MOMENT:  3.09669262E-02 *ENERGY(eV):   33.393751    
@ STATE NO:   14 *TRANSITION MOMENT: -0.14492345     *ENERGY(eV):   35.055449    
@ STATE NO:   15 *TRANSITION MOMENT: -4.32772989E-15 *ENERGY(eV):   35.669056    

@ Singlet transition operator label: ZDIPLEN 
@ STATE NO:    1 *TRANSITION MOMENT:  0.27744343     *ENERGY(eV):   1.6486889    
@ STATE NO:    2 *TRANSITION MOMENT:  1.28532231E-15 *ENERGY(eV):   4.9888910    
@ STATE NO:    3 *TRANSITION MOMENT:  1.84148415E-16 *ENERGY(eV):   8.9394074    
@ STATE NO:    4 *TRANSITION MOMENT:  1.71043705E-15 *ENERGY(eV):   10.662029    
@ STATE NO:    5 *TRANSITION MOMENT:  1.21895892E-14 *ENERGY(eV):   18.557708    
@ STATE NO:    6 *TRANSITION MOMENT:  0.92241031     *ENERGY(eV):   20.365382    
@ STATE NO:    7 *TRANSITION MOMENT: -2.91072333E-15 *ENERGY(eV):   21.477725    
@ STATE NO:    8 *TRANSITION MOMENT: -9.72062010E-15 *ENERGY(eV):   22.221295    
@ STATE NO:    9 *TRANSITION MOMENT:  0.14877838     *ENERGY(eV):   23.515009    
@ STATE NO:   10 *TRANSITION MOMENT: -1.75348888E-15 *ENERGY(eV):   26.156738    
@ STATE NO:   11 *TRANSITION MOMENT: -2.62541614E-15 *ENERGY(eV):   27.513900    
@ STATE NO:   12 *TRANSITION MOMENT:  6.22276226E-17 *ENERGY(eV):   29.952315    
@ STATE NO:   13 *TRANSITION MOMENT: -2.04459543E-17 *ENERGY(eV):   33.393751    
@ STATE NO:   14 *TRANSITION MOMENT: -2.65021700E-16 *ENERGY(eV):   35.055449    
@ STATE NO:   15 *TRANSITION MOMENT:  5.80995833E-02 *ENERGY(eV):   35.669056    


 **************************************************************************************
 *** @ Excit. operator sym 1 & ref. state sym 1 => excited state symmetry 1  ( A  ) ***
 **************************************************************************************



 @ Excited state no:    1 in symmetry 1  ( A  ) - singlet excitation
 -------------------------------------------------------------------

@ Excitation energy :  6.05882031E-02 au
@                       1.6486889     eV;   13297.573     cm-1;   159.07430     kJ / mol

@ Total energy :       -38.303297     au

@ Operator label: XDIPLEN ; Transition moment : -1.49729544E-15 au
@ Oscillator strength (LENGTH)   :  9.05548714E-32  (X-polarization)

@ Operator label: YDIPLEN ; Transition moment : -3.29941365E-16 au
@ Oscillator strength (LENGTH)   :  4.39714054E-33  (Y-polarization)

@ Operator label: ZDIPLEN ; Transition moment :  0.27744343     au
@ Oscillator strength (LENGTH)   :  3.10917876E-03  (Z-polarization)
@ Total oscillator strength (LENGTH)   :  3.10917876E-03

 Eigenvector for state no.  1

      Index(conf)                         Z operator          Y operator
      ----------                      --------------      --------------
          16                            0.9942391121        0.0000000000

      104 elements with absolute value ≤ 1.00D-01 are not printed.

 Printout of coefficients in interval  3.1623E-01 to  1.0000E+00
 ===============================================================

  Coefficient of CSF no.        16 is      0.99423911    9.94239112E-01
  Orbital          1   2   3   4   5
  Spin coupling    2   2   2   1  -1

 Printout of coefficients in interval  1.0000E-01 to  3.1623E-01
 ===============================================================
   ( no coefficients )

 Printout of coefficients in interval  1.0000E-01 to  1.0000E-01
 ===============================================================
   ( no coefficients )

 Norm of printed CI vector ..      0.98851141

 Magnitude of CI coefficients
 ============================
 ( Ranges are relative to norm of vector :  1.00E+00 )

  10- 1 to 10- 0         1    0.98851141E+00      0.9885114119
  10- 2 to 10- 1         8    0.11463145E-01      0.9999745569
  10- 3 to 10- 2         6    0.25195719E-04      0.9999997526
  10- 4 to 10- 3         6    0.22862130E-06      0.9999999812
  10- 5 to 10- 4         3    0.18809187E-07      1.0000000000
  Number of coefficients less than 10^-11 times norm is           81


 @ Excited state no:    2 in symmetry 1  ( A  ) - singlet excitation
 -------------------------------------------------------------------

@ Excitation energy :  0.18333838     au
@                       4.9888910     eV;   40238.122     cm-1;   481.35483     kJ / mol

@ Total energy :       -38.180547     au

@ Operator label: XDIPLEN ; Transition moment :  0.28765509     au
@ Oscillator strength (LENGTH)   :  1.01136108E-02  (X-polarization)

@ Operator label: YDIPLEN ; Transition moment :  8.27842056E-16 au
@ Oscillator strength (LENGTH)   :  8.37639389E-32  (Y-polarization)

@ Operator label: ZDIPLEN ; Transition moment :  1.28532231E-15 au
@ Oscillator strength (LENGTH)   :  2.01923196E-31  (Z-polarization)
@ Total oscillator strength (LENGTH)   :  1.01136108E-02

 Eigenvector for state no.  2

      Index(conf)                         Z operator          Y operator
      ----------                      --------------      --------------
           1                            0.2301862989        0.0000000000
           2                            0.9553966807        0.0000000000
          31                            0.1482601531        0.0000000000

      102 elements with absolute value ≤ 1.00D-01 are not printed.

 Printout of coefficients in interval  3.1623E-01 to  1.0000E+00
 ===============================================================

  Coefficient of CSF no.         2 is      0.95539668    9.55396681E-01
  Orbital          1   2   3   5
  Spin coupling    2   2   2   2

 Printout of coefficients in interval  1.0000E-01 to  3.1623E-01
 ===============================================================

  Coefficient of CSF no.         1 is      0.23018630    2.30186299E-01
  Orbital          1   2   3   4
  Spin coupling    2   2   2   2

  Coefficient of CSF no.        31 is      0.14826015    1.48260153E-01
  Orbital          1   3   5   2   4
  Spin coupling    2   2   2   1  -1

 Norm of printed CI vector ..      0.98774962

 Magnitude of CI coefficients
 ============================
 ( Ranges are relative to norm of vector :  1.00E+00 )

  10- 1 to 10- 0         3    0.98774962E+00      0.9877496227
  10- 2 to 10- 1         9    0.11973518E-01      0.9997231409
  10- 3 to 10- 2        13    0.27630951E-03      0.9999994504
  10- 4 to 10- 3        12    0.53367519E-06      0.9999999841
  10- 5 to 10- 4         4    0.15904771E-07      1.0000000000
  Number of coefficients less than 10^-11 times norm is           64


 @ Excited state no:    3 in symmetry 1  ( A  ) - singlet excitation
 -------------------------------------------------------------------

@ Excitation energy :  0.32851719     au
@                       8.9394074     eV;   72101.188     cm-1;   862.52174     kJ / mol

@ Total energy :       -38.035368     au

@ Operator label: XDIPLEN ; Transition moment : -2.18046208E-15 au
@ Oscillator strength (LENGTH)   :  1.04127134E-30  (X-polarization)

@ Operator label: YDIPLEN ; Transition moment : -1.03043302E-14 au
@ Oscillator strength (LENGTH)   :  2.32544660E-29  (Y-polarization)

@ Operator label: ZDIPLEN ; Transition moment :  1.84148415E-16 au
@ Oscillator strength (LENGTH)   :  7.42681846E-33  (Z-polarization)
@ Total oscillator strength (LENGTH)   :  2.43031642E-29

 Eigenvector for state no.  3

      Index(conf)                         Z operator          Y operator
      ----------                      --------------      --------------
          19                            0.9906609752        0.0000000000
          83                           -0.1061596114        0.0000000000

      103 elements with absolute value ≤ 1.00D-01 are not printed.

 Printout of coefficients in interval  3.1623E-01 to  1.0000E+00
 ===============================================================

  Coefficient of CSF no.        19 is      0.99066098    9.90660975E-01
  Orbital          1   2   4   3   5
  Spin coupling    2   2   2   1  -1

 Printout of coefficients in interval  1.0000E-01 to  3.1623E-01
 ===============================================================

  Coefficient of CSF no.        83 is     -0.10615961   -1.06159611E-01
  Orbital          1   4   2   3   5   6
  Spin coupling    2   2   1  -1   1  -1

 Printout of coefficients in interval  1.0000E-01 to  1.0000E-01
 ===============================================================
   ( no coefficients )

 Norm of printed CI vector ..      0.99267903

 Magnitude of CI coefficients
 ============================
 ( Ranges are relative to norm of vector :  1.00E+00 )

  10- 1 to 10- 0         2    0.99267903E+00      0.9926790308
  10- 2 to 10- 1         6    0.72155706E-02      0.9998946014
  10- 3 to 10- 2         3    0.10492523E-03      0.9999995266
  10- 4 to 10- 3         4    0.47340077E-06      1.0000000000
  10- 6 to 10- 5         1    0.88938643E-11      1.0000000000
  Number of coefficients less than 10^-11 times norm is           89


 @ Excited state no:    4 in symmetry 1  ( A  ) - singlet excitation
 -------------------------------------------------------------------

@ Excitation energy :  0.39182236     au
@                       10.662029     eV;   85995.068     cm-1;   1028.7295     kJ / mol

@ Total energy :       -37.972063     au

@ Operator label: XDIPLEN ; Transition moment : -1.15862464E-15 au
@ Oscillator strength (LENGTH)   :  3.50657784E-31  (X-polarization)

@ Operator label: YDIPLEN ; Transition moment :  0.11571484     au
@ Oscillator strength (LENGTH)   :  3.49764806E-03  (Y-polarization)

@ Operator label: ZDIPLEN ; Transition moment :  1.71043705E-15 au
@ Oscillator strength (LENGTH)   :  7.64209004E-31  (Z-polarization)
@ Total oscillator strength (LENGTH)   :  3.49764806E-03

 Eigenvector for state no.  4

      Index(conf)                         Z operator          Y operator
      ----------                      --------------      --------------
          28                           -0.9916854131        0.0000000000

      104 elements with absolute value ≤ 1.00D-01 are not printed.

 Printout of coefficients in interval  3.1623E-01 to  1.0000E+00
 ===============================================================

  Coefficient of CSF no.        28 is     -0.99168541   -9.91685413E-01
  Orbital          1   2   5   3   4
  Spin coupling    2   2   2   1  -1

 Printout of coefficients in interval  1.0000E-01 to  3.1623E-01
 ===============================================================
   ( no coefficients )

 Norm of printed CI vector ..      0.98343996

 Magnitude of CI coefficients
 ============================
 ( Ranges are relative to norm of vector :  1.00E+00 )

  10- 1 to 10- 0         1    0.98343996E+00      0.9834399587
  10- 2 to 10- 1         7    0.16424884E-01      0.9998648426
  10- 3 to 10- 2         6    0.13421562E-03      0.9999990582
  10- 4 to 10- 3         8    0.93324266E-06      0.9999999914
  10- 5 to 10- 4         2    0.85566123E-08      1.0000000000
  Number of coefficients less than 10^-11 times norm is           81


 @ Excited state no:    5 in symmetry 1  ( A  ) - singlet excitation
 -------------------------------------------------------------------

@ Excitation energy :  0.68198325     au
@                       18.557708     eV;   149678.02     cm-1;   1790.5467     kJ / mol

@ Total energy :       -37.681902     au

@ Operator label: XDIPLEN ; Transition moment : -0.42403433     au
@ Oscillator strength (LENGTH)   :  8.17493832E-02  (X-polarization)

@ Operator label: YDIPLEN ; Transition moment : -8.39436884E-15 au
@ Oscillator strength (LENGTH)   :  3.20374945E-29  (Y-polarization)

@ Operator label: ZDIPLEN ; Transition moment :  1.21895892E-14 au
@ Oscillator strength (LENGTH)   :  6.75554810E-29  (Z-polarization)
@ Total oscillator strength (LENGTH)   :  8.17493832E-02

 Eigenvector for state no.  5

      Index(conf)                         Z operator          Y operator
      ----------                      --------------      --------------
          17                           -0.7030014258        0.0000000000
          31                            0.6879649388        0.0000000000

      103 elements with absolute value ≤ 1.00D-01 are not printed.

 Printout of coefficients in interval  3.1623E-01 to  1.0000E+00
 ===============================================================

  Coefficient of CSF no.        17 is     -0.70300143   -7.03001426E-01
  Orbital          1   2   3   4   6
  Spin coupling    2   2   2   1  -1

  Coefficient of CSF no.        31 is      0.68796494    6.87964939E-01
  Orbital          1   3   5   2   4
  Spin coupling    2   2   2   1  -1

 Printout of coefficients in interval  1.0000E-01 to  3.1623E-01
 ===============================================================
   ( no coefficients )

 Norm of printed CI vector ..      0.96750676

 Magnitude of CI coefficients
 ============================
 ( Ranges are relative to norm of vector :  1.00E+00 )

  10- 1 to 10- 0         2    0.96750676E+00      0.9675067617
  10- 2 to 10- 1        12    0.32423199E-01      0.9999299603
  10- 3 to 10- 2        11    0.67460108E-04      0.9999974204
  10- 4 to 10- 3        13    0.25633402E-05      0.9999999837
  10- 5 to 10- 4         3    0.16251382E-07      1.0000000000
  Number of coefficients less than 10^-11 times norm is           64


 @ Excited state no:    6 in symmetry 1  ( A  ) - singlet excitation
 -------------------------------------------------------------------

@ Excitation energy :  0.74841403     au
@                       20.365382     eV;   164257.89     cm-1;   1964.9607     kJ / mol

@ Total energy :       -37.615471     au

@ Operator label: XDIPLEN ; Transition moment :  1.14733708E-14 au
@ Oscillator strength (LENGTH)   :  6.56799353E-29  (X-polarization)

@ Operator label: YDIPLEN ; Transition moment :  5.64173369E-15 au
@ Oscillator strength (LENGTH)   :  1.58809260E-29  (Y-polarization)

@ Operator label: ZDIPLEN ; Transition moment :  0.92241031     au
@ Oscillator strength (LENGTH)   :  0.42452078      (Z-polarization)
@ Total oscillator strength (LENGTH)   :  0.42452078    

 Eigenvector for state no.  6

      Index(conf)                         Z operator          Y operator
      ----------                      --------------      --------------
          22                            0.9876250726        0.0000000000

      104 elements with absolute value ≤ 1.00D-01 are not printed.

 Printout of coefficients in interval  3.1623E-01 to  1.0000E+00
 ===============================================================

  Coefficient of CSF no.        22 is      0.98762507    9.87625073E-01
  Orbital          1   3   4   2   5
  Spin coupling    2   2   2   1  -1

 Printout of coefficients in interval  1.0000E-01 to  3.1623E-01
 ===============================================================
   ( no coefficients )

 Norm of printed CI vector ..      0.97540328

 Magnitude of CI coefficients
 ============================
 ( Ranges are relative to norm of vector :  1.00E+00 )

  10- 1 to 10- 0         1    0.97540328E+00      0.9754032839
  10- 2 to 10- 1         9    0.24449776E-01      0.9998530604
  10- 3 to 10- 2         7    0.14576347E-03      0.9999988239
  10- 4 to 10- 3         6    0.11745259E-05      0.9999999984
  10- 5 to 10- 4         1    0.16198951E-08      1.0000000000
  Number of coefficients less than 10^-11 times norm is           81


 @ Excited state no:    7 in symmetry 1  ( A  ) - singlet excitation
 -------------------------------------------------------------------

@ Excitation energy :  0.78929189     au
@                       21.477725     eV;   173229.54     cm-1;   2072.2855     kJ / mol

@ Total energy :       -37.574593     au

@ Operator label: XDIPLEN ; Transition moment :  1.82477271E-02 au
@ Oscillator strength (LENGTH)   :  1.75212035E-04  (X-polarization)

@ Operator label: YDIPLEN ; Transition moment :  4.60286473E-15 au
@ Oscillator strength (LENGTH)   :  1.11481500E-29  (Y-polarization)

@ Operator label: ZDIPLEN ; Transition moment : -2.91072333E-15 au
@ Oscillator strength (LENGTH)   :  4.45808386E-30  (Z-polarization)
@ Total oscillator strength (LENGTH)   :  1.75212035E-04

 Eigenvector for state no.  7

      Index(conf)                         Z operator          Y operator
      ----------                      --------------      --------------
           3                            0.9499611856        0.0000000000
           4                           -0.2342260765        0.0000000000
          17                            0.1055538041        0.0000000000
          30                           -0.1109970176        0.0000000000

      101 elements with absolute value ≤ 1.00D-01 are not printed.

 Printout of coefficients in interval  3.1623E-01 to  1.0000E+00
 ===============================================================

  Coefficient of CSF no.         3 is      0.94996119    9.49961186E-01
  Orbital          1   2   4   5
  Spin coupling    2   2   2   2

 Printout of coefficients in interval  1.0000E-01 to  3.1623E-01
 ===============================================================

  Coefficient of CSF no.         4 is     -0.23422608   -2.34226076E-01
  Orbital          1   3   4   5
  Spin coupling    2   2   2   2

  Coefficient of CSF no.        17 is      0.10555380    1.05553804E-01
  Orbital          1   2   3   4   6
  Spin coupling    2   2   2   1  -1

  Coefficient of CSF no.        30 is     -0.11099702   -1.10997018E-01
  Orbital          1   2   5   4   6
  Spin coupling    2   2   2   1  -1

 Norm of printed CI vector ..      0.98075005

 Magnitude of CI coefficients
 ============================
 ( Ranges are relative to norm of vector :  1.00E+00 )

  10- 1 to 10- 0         4    0.98075005E+00      0.9807500525
  10- 2 to 10- 1        10    0.19077621E-01      0.9998276739
  10- 3 to 10- 2         7    0.16988426E-03      0.9999975581
  10- 4 to 10- 3        16    0.24262832E-05      0.9999999844
  10- 5 to 10- 4         4    0.15567654E-07      1.0000000000
  Number of coefficients less than 10^-11 times norm is           64


 @ Excited state no:    8 in symmetry 1  ( A  ) - singlet excitation
 -------------------------------------------------------------------

@ Excitation energy :  0.81661759     au
@                       22.221295     eV;   179226.84     cm-1;   2144.0291     kJ / mol

@ Total energy :       -37.547267     au

@ Operator label: XDIPLEN ; Transition moment :  7.74397378E-05 au
@ Oscillator strength (LENGTH)   :  3.26478974E-09  (X-polarization)

@ Operator label: YDIPLEN ; Transition moment :  2.40515306E-15 au
@ Oscillator strength (LENGTH)   :  3.14929185E-30  (Y-polarization)

@ Operator label: ZDIPLEN ; Transition moment : -9.72062010E-15 au
@ Oscillator strength (LENGTH)   :  5.14417116E-29  (Z-polarization)
@ Total oscillator strength (LENGTH)   :  3.26478974E-09

 Eigenvector for state no.  8

      Index(conf)                         Z operator          Y operator
      ----------                      --------------      --------------
           2                           -0.1206745590        0.0000000000
           3                           -0.1422373925        0.0000000000
          17                            0.6965320321        0.0000000000
          31                            0.6800237555        0.0000000000

      101 elements with absolute value ≤ 1.00D-01 are not printed.

 Printout of coefficients in interval  3.1623E-01 to  1.0000E+00
 ===============================================================

  Coefficient of CSF no.        17 is      0.69653203    6.96532032E-01
  Orbital          1   2   3   4   6
  Spin coupling    2   2   2   1  -1

  Coefficient of CSF no.        31 is      0.68002376    6.80023756E-01
  Orbital          1   3   5   2   4
  Spin coupling    2   2   2   1  -1

 Printout of coefficients in interval  1.0000E-01 to  3.1623E-01
 ===============================================================

  Coefficient of CSF no.         2 is     -0.12067456   -1.20674559E-01
  Orbital          1   2   3   5
  Spin coupling    2   2   2   2

  Coefficient of CSF no.         3 is     -0.14223739   -1.42237393E-01
  Orbital          1   2   4   5
  Spin coupling    2   2   2   2

 Norm of printed CI vector ..      0.98238300

 Magnitude of CI coefficients
 ============================
 ( Ranges are relative to norm of vector :  1.00E+00 )

  10- 1 to 10- 0         4    0.98238300E+00      0.9823830048
  10- 2 to 10- 1         9    0.17289508E-01      0.9996725127
  10- 3 to 10- 2        16    0.32592796E-03      0.9999984406
  10- 4 to 10- 3        10    0.15536451E-05      0.9999999943
  10- 5 to 10- 4         2    0.57370757E-08      1.0000000000
  Number of coefficients less than 10^-11 times norm is           64


 @ Excited state no:    9 in symmetry 1  ( A  ) - singlet excitation
 -------------------------------------------------------------------

@ Excitation energy :  0.86416071     au
@                       23.515009     eV;   189661.35     cm-1;   2268.8536     kJ / mol

@ Total energy :       -37.499724     au

@ Operator label: XDIPLEN ; Transition moment :  1.41544689E-15 au
@ Oscillator strength (LENGTH)   :  1.15422482E-30  (X-polarization)

@ Operator label: YDIPLEN ; Transition moment :  8.53537235E-16 au
@ Oscillator strength (LENGTH)   :  4.19708920E-31  (Y-polarization)

@ Operator label: ZDIPLEN ; Transition moment :  0.14877838     au
@ Oscillator strength (LENGTH)   :  1.27521343E-02  (Z-polarization)
@ Total oscillator strength (LENGTH)   :  1.27521343E-02

 Eigenvector for state no.  9

      Index(conf)                         Z operator          Y operator
      ----------                      --------------      --------------
          18                            0.9339837589        0.0000000000
          78                            0.1936222236        0.0000000000
          79                            0.2760951974        0.0000000000

      102 elements with absolute value ≤ 1.00D-01 are not printed.

 Printout of coefficients in interval  3.1623E-01 to  1.0000E+00
 ===============================================================

  Coefficient of CSF no.        18 is      0.93398376    9.33983759E-01
  Orbital          1   2   3   5   6
  Spin coupling    2   2   2   1  -1

 Printout of coefficients in interval  1.0000E-01 to  3.1623E-01
 ===============================================================

  Coefficient of CSF no.        78 is      0.19362222    1.93622224E-01
  Orbital          1   3   2   4   5   6
  Spin coupling    2   2   1   1  -1  -1

  Coefficient of CSF no.        79 is      0.27609520    2.76095197E-01
  Orbital          1   3   2   4   5   6
  Spin coupling    2   2   1  -1   1  -1

 Norm of printed CI vector ..      0.98604379

 Magnitude of CI coefficients
 ============================
 ( Ranges are relative to norm of vector :  1.00E+00 )

  10- 1 to 10- 0         3    0.98604379E+00      0.9860437854
  10- 2 to 10- 1         6    0.13911672E-01      0.9999554576
  10- 3 to 10- 2         6    0.42605836E-04      0.9999980634
  10- 4 to 10- 3         7    0.19353746E-05      0.9999999988
  10- 5 to 10- 4         2    0.11958406E-08      1.0000000000
  Number of coefficients less than 10^-11 times norm is           81


 @ Excited state no:   10 in symmetry 1  ( A  ) - singlet excitation
 -------------------------------------------------------------------

@ Excitation energy :  0.96124245     au
@                       26.156738     eV;   210968.33     cm-1;   2523.7417     kJ / mol

@ Total energy :       -37.402642     au

@ Operator label: XDIPLEN ; Transition moment :  2.58207092E-15 au
@ Oscillator strength (LENGTH)   :  4.27246012E-30  (X-polarization)

@ Operator label: YDIPLEN ; Transition moment :  1.58809327E-14 au
@ Oscillator strength (LENGTH)   :  1.61619476E-28  (Y-polarization)

@ Operator label: ZDIPLEN ; Transition moment : -1.75348888E-15 au
@ Oscillator strength (LENGTH)   :  1.97036969E-30  (Z-polarization)
@ Total oscillator strength (LENGTH)   :  1.67862306E-28

 Eigenvector for state no. 10

      Index(conf)                         Z operator          Y operator
      ----------                      --------------      --------------
          76                            0.6567189163        0.0000000000
          77                            0.7433964307        0.0000000000

      103 elements with absolute value ≤ 1.00D-01 are not printed.

 Printout of coefficients in interval  3.1623E-01 to  1.0000E+00
 ===============================================================

  Coefficient of CSF no.        76 is      0.65671892    6.56718916E-01
  Orbital          1   2   3   4   5   6
  Spin coupling    2   2   1   1  -1  -1

  Coefficient of CSF no.        77 is      0.74339643    7.43396431E-01
  Orbital          1   2   3   4   5   6
  Spin coupling    2   2   1  -1   1  -1

 Printout of coefficients in interval  1.0000E-01 to  3.1623E-01
 ===============================================================
   ( no coefficients )

 Printout of coefficients in interval  1.0000E-01 to  1.0000E-01
 ===============================================================
   ( no coefficients )

 Norm of printed CI vector ..      0.98391799

 Magnitude of CI coefficients
 ============================
[...]
 ( Ranges are relative to norm of vector :  1.00E+00 )

  10- 1 to 10- 0         3    0.99824779E+00      0.9982477915
  10- 2 to 10- 1         3    0.16372712E-02      0.9998850627
  10- 3 to 10- 2        10    0.11276112E-03      0.9999978239
  10- 4 to 10- 3         6    0.21630576E-05      0.9999999869
  10- 5 to 10- 4         2    0.13084710E-07      1.0000000000
  Number of coefficients less than 10^-11 times norm is           81


 @ Excited state no:   98 in symmetry 1  ( A  ) - singlet excitation
 -------------------------------------------------------------------

@ Excitation energy :   25.000714     au
@                       680.30403     eV;   5487022.4     cm-1;   65639.364     kJ / mol

@ Total energy :       -13.363171     au

@ Operator label: XDIPLEN ; Transition moment :  7.17546399E-18 au
@ Oscillator strength (LENGTH)   :  8.58145897E-34  (X-polarization)

@ Operator label: YDIPLEN ; Transition moment :  1.19301026E-18 au
@ Oscillator strength (LENGTH)   :  2.37219020E-35  (Y-polarization)

@ Operator label: ZDIPLEN ; Transition moment : -5.52603886E-05 au
@ Oscillator strength (LENGTH)   :  5.08966293E-08  (Z-polarization)
@ Total oscillator strength (LENGTH)   :  5.08966293E-08

 Eigenvector for state no. 98

      Index(conf)                         Z operator          Y operator
      ----------                      --------------      --------------
          27                           -0.2177429714        0.0000000000
          54                           -0.9268844096        0.0000000000
          63                            0.3026320223        0.0000000000

      102 elements with absolute value ≤ 1.00D-01 are not printed.

 Printout of coefficients in interval  3.1623E-01 to  1.0000E+00
 ===============================================================

  Coefficient of CSF no.        54 is     -0.92688441   -9.26884410E-01
  Orbital          2   3   6   4   5
  Spin coupling    2   2   2   1  -1

 Printout of coefficients in interval  1.0000E-01 to  3.1623E-01
 ===============================================================

  Coefficient of CSF no.        27 is     -0.21774297   -2.17742971E-01
  Orbital          2   3   4   5   6
  Spin coupling    2   2   2   1  -1

  Coefficient of CSF no.        63 is      0.30263202    3.02632022E-01
  Orbital          3   4   6   2   5
  Spin coupling    2   2   2   1  -1

 Norm of printed CI vector ..      0.99811285

 Magnitude of CI coefficients
 ============================
 ( Ranges are relative to norm of vector :  1.00E+00 )

  10- 1 to 10- 0         3    0.99811285E+00      0.9981128513
  10- 2 to 10- 1         3    0.16635897E-02      0.9997764410
  10- 3 to 10- 2        11    0.22314087E-03      0.9999995819
  10- 4 to 10- 3         4    0.39819397E-06      0.9999999800
  10- 5 to 10- 4         3    0.19955162E-07      1.0000000000
  Number of coefficients less than 10^-11 times norm is           81


 @ Excited state no:   99 in symmetry 1  ( A  ) - singlet excitation
 -------------------------------------------------------------------

@ Excitation energy :   25.004665     au
@                       680.41155     eV;   5487889.6     cm-1;   65649.738     kJ / mol

@ Total energy :       -13.359220     au

@ Operator label: XDIPLEN ; Transition moment : -6.65424116E-05 au
@ Oscillator strength (LENGTH)   :  7.38119798E-08  (X-polarization)

@ Operator label: YDIPLEN ; Transition moment : -1.07865208E-16 au
@ Oscillator strength (LENGTH)   :  1.93951235E-31  (Y-polarization)

@ Operator label: ZDIPLEN ; Transition moment :  2.64011818E-16 au
@ Oscillator strength (LENGTH)   :  1.16192077E-30  (Z-polarization)
@ Total oscillator strength (LENGTH)   :  7.38119798E-08

 Eigenvector for state no. 99

      Index(conf)                         Z operator          Y operator
      ----------                      --------------      --------------
           9                           -0.2722172045        0.0000000000
          14                            0.9080922219        0.0000000000
          45                           -0.3015011806        0.0000000000

      102 elements with absolute value ≤ 1.00D-01 are not printed.

 Printout of coefficients in interval  3.1623E-01 to  1.0000E+00
 ===============================================================

  Coefficient of CSF no.        14 is      0.90809222    9.08092222E-01
  Orbital          2   4   5   6
  Spin coupling    2   2   2   2

 Printout of coefficients in interval  1.0000E-01 to  3.1623E-01
 ===============================================================

  Coefficient of CSF no.         9 is     -0.27221720   -2.72217204E-01
  Orbital          2   3   4   6
  Spin coupling    2   2   2   2

  Coefficient of CSF no.        45 is     -0.30150118   -3.01501181E-01
  Orbital          3   4   5   2   6
  Spin coupling    2   2   2   1  -1

 Norm of printed CI vector ..      0.98963665

 Magnitude of CI coefficients
 ============================
 ( Ranges are relative to norm of vector :  1.00E+00 )

  10- 1 to 10- 0         3    0.98963665E+00      0.9896366518
  10- 2 to 10- 1         8    0.10095207E-01      0.9997318592
  10- 3 to 10- 2        15    0.26493136E-03      0.9999967906
  10- 4 to 10- 3        13    0.31998616E-05      0.9999999905
  10- 5 to 10- 4         2    0.95360165E-08      1.0000000000
  Number of coefficients less than 10^-11 times norm is           64


 @ Excited state no:  100 in symmetry 1  ( A  ) - singlet excitation
 -------------------------------------------------------------------

@ Excitation energy :   25.084885     au
@                       682.59445     eV;   5505495.9     cm-1;   65860.356     kJ / mol

@ Total energy :       -13.279000     au

@ Operator label: XDIPLEN ; Transition moment : -2.14763671E-05 au
@ Oscillator strength (LENGTH)   :  7.71334044E-09  (X-polarization)

@ Operator label: YDIPLEN ; Transition moment : -9.49379298E-17 au
@ Oscillator strength (LENGTH)   :  1.50730235E-31  (Y-polarization)

@ Operator label: ZDIPLEN ; Transition moment : -9.58188296E-17 au
@ Oscillator strength (LENGTH)   :  1.53540371E-31  (Z-polarization)
@ Total oscillator strength (LENGTH)   :  7.71334044E-09

 Eigenvector for state no.100

      Index(conf)                         Z operator          Y operator
      ----------                      --------------      --------------
           9                            0.1528227430        0.0000000000
          12                            0.7972781838        0.0000000000
          14                            0.1541633058        0.0000000000
          36                           -0.2746546908        0.0000000000
          72                            0.4765408902        0.0000000000

      100 elements with absolute value ≤ 1.00D-01 are not printed.

 Printout of coefficients in interval  3.1623E-01 to  1.0000E+00
 ===============================================================

  Coefficient of CSF no.        12 is      0.79727818    7.97278184E-01
  Orbital          2   3   5   6
  Spin coupling    2   2   2   2

  Coefficient of CSF no.        72 is      0.47654089    4.76540890E-01
  Orbital          3   5   6   2   4
  Spin coupling    2   2   2   1  -1

 Printout of coefficients in interval  1.0000E-01 to  3.1623E-01
 ===============================================================

  Coefficient of CSF no.         9 is      0.15282274    1.52822743E-01
  Orbital          2   3   4   6
  Spin coupling    2   2   2   2

  Coefficient of CSF no.        14 is      0.15416331    1.54163306E-01
  Orbital          2   4   5   6
  Spin coupling    2   2   2   2

  Coefficient of CSF no.        36 is     -0.27465469   -2.74654691E-01
  Orbital          2   3   5   4   6
  Spin coupling    2   2   2   1  -1

 Norm of printed CI vector ..      0.98530004

 Magnitude of CI coefficients
 ============================
 ( Ranges are relative to norm of vector :  1.00E+00 )

  10- 1 to 10- 0         5    0.98530004E+00      0.9853000372
  10- 2 to 10- 1         6    0.14464568E-01      0.9997646054
  10- 3 to 10- 2        14    0.23368485E-03      0.9999982903
  10- 4 to 10- 3        14    0.17089302E-05      0.9999999992
  10- 5 to 10- 4         1    0.75374154E-09      1.0000000000
  10- 6 to 10- 5         1    0.44722844E-10      1.0000000000
  Number of coefficients less than 10^-11 times norm is           64


 @ Excited state no:  101 in symmetry 1  ( A  ) - singlet excitation
 -------------------------------------------------------------------

@ Excitation energy :   25.558635     au
@                       695.48584     eV;   5609472.0     cm-1;   67104.187     kJ / mol

@ Total energy :       -12.805250     au

@ Operator label: XDIPLEN ; Transition moment : -1.14027961E-16 au
@ Oscillator strength (LENGTH)   :  2.21548656E-31  (X-polarization)

@ Operator label: YDIPLEN ; Transition moment : -2.62932493E-06 au
@ Oscillator strength (LENGTH)   :  1.17797187E-10  (Y-polarization)

@ Operator label: ZDIPLEN ; Transition moment :  3.57158701E-18 au
@ Oscillator strength (LENGTH)   :  2.17354617E-34  (Z-polarization)
@ Total oscillator strength (LENGTH)   :  1.17797187E-10

 Eigenvector for state no.101

      Index(conf)                         Z operator          Y operator
      ----------                      --------------      --------------
          42                            0.1213768151        0.0000000000
          69                           -0.1892864214        0.0000000000
          75                           -0.9738163850        0.0000000000

      102 elements with absolute value ≤ 1.00D-01 are not printed.

 Printout of coefficients in interval  3.1623E-01 to  1.0000E+00
 ===============================================================

  Coefficient of CSF no.        75 is     -0.97381638   -9.73816385E-01
  Orbital          4   5   6   2   3
  Spin coupling    2   2   2   1  -1

 Printout of coefficients in interval  1.0000E-01 to  3.1623E-01
 ===============================================================

  Coefficient of CSF no.        42 is      0.12137682    1.21376815E-01
  Orbital          2   4   5   3   6
  Spin coupling    2   2   2   1  -1

  Coefficient of CSF no.        69 is     -0.18928642   -1.89286421E-01
  Orbital          2   5   6   3   4
  Spin coupling    2   2   2   1  -1

 Norm of printed CI vector ..      0.99888003

 Magnitude of CI coefficients
 ============================
 ( Ranges are relative to norm of vector :  1.00E+00 )

  10- 1 to 10- 0         3    0.99888003E+00      0.9988800322
  10- 2 to 10- 1         3    0.10259620E-02      0.9999059942
  10- 3 to 10- 2         7    0.90949243E-04      0.9999969434
  10- 4 to 10- 3        10    0.30496127E-05      0.9999999930
  10- 5 to 10- 4         1    0.69944302E-08      1.0000000000
  Number of coefficients less than 10^-11 times norm is           81


 @ Excited state no:  102 in symmetry 1  ( A  ) - singlet excitation
 -------------------------------------------------------------------

@ Excitation energy :   25.578866     au
@                       696.03636     eV;   5613912.2     cm-1;   67157.304     kJ / mol

@ Total energy :       -12.785018     au

@ Operator label: XDIPLEN ; Transition moment : -3.97721220E-17 au
@ Oscillator strength (LENGTH)   :  2.69741372E-32  (X-polarization)

@ Operator label: YDIPLEN ; Transition moment : -6.67040029E-18 au
@ Oscillator strength (LENGTH)   :  7.58741483E-34  (Y-polarization)

@ Operator label: ZDIPLEN ; Transition moment :  4.50471026E-05 au
@ Oscillator strength (LENGTH)   :  3.46037975E-08  (Z-polarization)
@ Total oscillator strength (LENGTH)   :  3.46037975E-08

 Eigenvector for state no.102

      Index(conf)                         Z operator          Y operator
      ----------                      --------------      --------------
          27                            0.2243201913        0.0000000000
          54                           -0.3494030612        0.0000000000
          63                           -0.9090510331        0.0000000000

      102 elements with absolute value ≤ 1.00D-01 are not printed.

 Printout of coefficients in interval  3.1623E-01 to  1.0000E+00
 ===============================================================

  Coefficient of CSF no.        54 is     -0.34940306   -3.49403061E-01
  Orbital          2   3   6   4   5
  Spin coupling    2   2   2   1  -1

  Coefficient of CSF no.        63 is     -0.90905103   -9.09051033E-01
  Orbital          3   4   6   2   5
  Spin coupling    2   2   2   1  -1

 Printout of coefficients in interval  1.0000E-01 to  3.1623E-01
 ===============================================================

  Coefficient of CSF no.        27 is      0.22432019    2.24320191E-01
  Orbital          2   3   4   5   6
  Spin coupling    2   2   2   1  -1

 Norm of printed CI vector ..      0.99877583

 Magnitude of CI coefficients
 ============================
 ( Ranges are relative to norm of vector :  1.00E+00 )

  10- 1 to 10- 0         3    0.99877583E+00      0.9987758282
  10- 2 to 10- 1         3    0.10636985E-02      0.9998395267
  10- 3 to 10- 2         6    0.15727811E-03      0.9999968048
  10- 4 to 10- 3        11    0.31892835E-05      0.9999999941
  10- 5 to 10- 4         1    0.58880432E-08      1.0000000000
  Number of coefficients less than 10^-11 times norm is           81


 @ Excited state no:  103 in symmetry 1  ( A  ) - singlet excitation
 -------------------------------------------------------------------

@ Excitation energy :   25.631576     au
@                       697.47067     eV;   5625480.7     cm-1;   67295.693     kJ / mol

@ Total energy :       -12.732308     au

@ Operator label: XDIPLEN ; Transition moment : -3.50495096E-05 au
@ Oscillator strength (LENGTH)   :  2.09917163E-08  (X-polarization)

@ Operator label: YDIPLEN ; Transition moment : -1.51379013E-16 au
@ Oscillator strength (LENGTH)   :  3.91575395E-31  (Y-polarization)

@ Operator label: ZDIPLEN ; Transition moment :  6.05190942E-18 au
@ Oscillator strength (LENGTH)   :  6.25848041E-34  (Z-polarization)
@ Total oscillator strength (LENGTH)   :  2.09917163E-08

 Eigenvector for state no.103

      Index(conf)                         Z operator          Y operator
      ----------                      --------------      --------------
          12                            0.4914428991        0.0000000000
          15                           -0.3079082940        0.0000000000
          45                           -0.2199795800        0.0000000000
          72                           -0.7729515713        0.0000000000

      101 elements with absolute value ≤ 1.00D-01 are not printed.

 Printout of coefficients in interval  3.1623E-01 to  1.0000E+00
 ===============================================================

  Coefficient of CSF no.        12 is      0.49144290    4.91442899E-01
  Orbital          2   3   5   6
  Spin coupling    2   2   2   2

  Coefficient of CSF no.        72 is     -0.77295157   -7.72951571E-01
  Orbital          3   5   6   2   4
  Spin coupling    2   2   2   1  -1

 Printout of coefficients in interval  1.0000E-01 to  3.1623E-01
 ===============================================================

  Coefficient of CSF no.        15 is     -0.30790829   -3.07908294E-01
  Orbital          3   4   5   6
  Spin coupling    2   2   2   2

  Coefficient of CSF no.        45 is     -0.21997958   -2.19979580E-01
  Orbital          3   4   5   2   6
  Spin coupling    2   2   2   1  -1

 Norm of printed CI vector ..      0.98216879

 Magnitude of CI coefficients
 ============================
 ( Ranges are relative to norm of vector :  1.00E+00 )

  10- 1 to 10- 0         4    0.98216879E+00      0.9821687878
  10- 2 to 10- 1         7    0.17703669E-01      0.9998724569
  10- 3 to 10- 2         8    0.12266084E-03      0.9999951177
  10- 4 to 10- 3        18    0.48749851E-05      0.9999999927
  10- 5 to 10- 4         3    0.73061967E-08      1.0000000000
  10- 6 to 10- 5         1    0.18163925E-10      1.0000000000
  Number of coefficients less than 10^-11 times norm is           64


 @ Excited state no:  104 in symmetry 1  ( A  ) - singlet excitation
 -------------------------------------------------------------------

@ Excitation energy :   26.020528     au
@                       708.05458     eV;   5710845.7     cm-1;   68316.885     kJ / mol

@ Total energy :       -12.343357     au

@ Operator label: XDIPLEN ; Transition moment : -1.05063183E-05 au
@ Oscillator strength (LENGTH)   :  1.91481117E-09  (X-polarization)

@ Operator label: YDIPLEN ; Transition moment :  4.08257440E-16 au
@ Oscillator strength (LENGTH)   :  2.89129935E-30  (Y-polarization)

@ Operator label: ZDIPLEN ; Transition moment :  1.66044424E-16 au
@ Oscillator strength (LENGTH)   :  4.78270320E-31  (Z-polarization)
@ Total oscillator strength (LENGTH)   :  1.91481117E-09

 Eigenvector for state no.104

      Index(conf)                         Z operator          Y operator
      ----------                      --------------      --------------
           9                           -0.1290541307        0.0000000000
          12                           -0.1940001465        0.0000000000
          14                           -0.1134248302        0.0000000000
          15                           -0.8749273184        0.0000000000
          45                           -0.2639958192        0.0000000000
          72                            0.3017462113        0.0000000000

       99 elements with absolute value ≤ 1.00D-01 are not printed.

 Printout of coefficients in interval  3.1623E-01 to  1.0000E+00
 ===============================================================

  Coefficient of CSF no.        15 is     -0.87492732   -8.74927318E-01
  Orbital          3   4   5   6
  Spin coupling    2   2   2   2

 Printout of coefficients in interval  1.0000E-01 to  3.1623E-01
 ===============================================================

  Coefficient of CSF no.         9 is     -0.12905413   -1.29054131E-01
  Orbital          2   3   4   6
  Spin coupling    2   2   2   2

  Coefficient of CSF no.        12 is     -0.19400015   -1.94000146E-01
  Orbital          2   3   5   6
  Spin coupling    2   2   2   2

  Coefficient of CSF no.        14 is     -0.11342483   -1.13424830E-01
  Orbital          2   4   5   6
  Spin coupling    2   2   2   2

  Coefficient of CSF no.        45 is     -0.26399582   -2.63995819E-01
  Orbital          3   4   5   2   6
  Spin coupling    2   2   2   1  -1

  Coefficient of CSF no.        72 is      0.30174621    3.01746211E-01
  Orbital          3   5   6   2   4
  Spin coupling    2   2   2   1  -1

 Norm of printed CI vector ..      0.99339860

 Magnitude of CI coefficients
 ============================
 ( Ranges are relative to norm of vector :  1.00E+00 )

  10- 1 to 10- 0         6    0.99339860E+00      0.9933985986
  10- 2 to 10- 1         3    0.63498969E-02      0.9997484956
  10- 3 to 10- 2        14    0.24821088E-03      0.9999967064
  10- 4 to 10- 3        16    0.32808014E-05      0.9999999872
  10- 5 to 10- 4         2    0.12765671E-07      1.0000000000
  Number of coefficients less than 10^-11 times norm is           64


 Time used in polarization propagator calculation is      0.12 CPU seconds for symmetry 1

  Total CPU  time used in RESPONSE:   0.15 seconds
  Total wall time used in RESPONSE:   0.29 seconds


                   .-------------------------------------------.
                   | End of Dynamic Property Section (RESPONS) |
                   `-------------------------------------------'

  Total CPU  time used in DALTON:   0.26 seconds
  Total wall time used in DALTON:   0.75 seconds

 NOTE:    1 warnings have been issued.
 Check output, result, and error files for "WARNING".

 
     Date and time (Linux)  : Tue Jul  7 10:31:27 2026
     Host name              : n-62-31-23                              
