

     ************************************************************************
     *************** Dalton - An Electronic Structure Program ***************
     ************************************************************************

    This is output from DALTON release Dalton2024.0-dev (2024)
         ( Web site: http://daltonprogram.org )

   ----------------------------------------------------------------------------

    NOTE:
     
    Dalton is an experimental code for the evaluation of molecular
    properties using (MC)SCF, DFT, CI, and CC wave functions.
    The authors accept no responsibility for the performance of
    the code or for the correctness of the results.
     
    The code (in whole or part) is provided under a licence and
    is not to be reproduced for further distribution without
    the written permission of the authors or their representatives.
     
    See the home page "http://daltonprogram.org" for further information.
     
    If results obtained with this code are published,
    the appropriate citations would be both of:
     
       K. Aidas, C. Angeli, K. L. Bak, V. Bakken,
       R. Bast, L. Boman, O. Christiansen, R. Cimiraglia,
       S. Coriani, P. Dahle, E. K. Dalskov, U. Ekstroem,
       T. Enevoldsen, J. J. Eriksen, P. Ettenhuber, B. Fernandez,
       L. Ferrighi, H. Fliegl, L. Frediani, K. Hald, A. Halkier,
       C. Haettig, H. Heiberg, T. Helgaker, A. C. Hennum,
       H. Hettema, E. Hjertenaes, S. Hoest, I.-M. Hoeyvik,
       M. F. Iozzi, B. Jansik, H. J. Aa. Jensen, D. Jonsson,
       P. Joergensen, J. Kauczor, S. Kirpekar,
       T. Kjaergaard, W. Klopper, S. Knecht, R. Kobayashi, H. Koch,
       J. Kongsted, A. Krapp, K. Kristensen, A. Ligabue,
       O. B. Lutnaes, J. I. Melo, K. V. Mikkelsen, R. H. Myhre,
       C. Neiss, C. B. Nielsen, P. Norman, J. Olsen,
       J. M. H. Olsen, A. Osted, M. J. Packer, F. Pawlowski,
       T. B. Pedersen, P. F. Provasi, S. Reine, Z. Rinkevicius,
       T. A. Ruden, K. Ruud, V. Rybkin, P. Salek, C. C. M. Samson,
       A. Sanchez de Meras, T. Saue, S. P. A. Sauer,
       B. Schimmelpfennig, K. Sneskov, A. H. Steindal,
       K. O. Sylvester-Hvid, P. R. Taylor, A. M. Teale,
       E. I. Tellgren, D. P. Tew, A. J. Thorvaldsen, L. Thoegersen,
       O. Vahtras, M. A. Watson, D. J. D. Wilson, M. Ziolkowski
       and H. Agren,
       "The Dalton quantum chemistry program system",
       WIREs Comput. Mol. Sci. 2014, 4:269-284 (doi: 10.1002/wcms.1172)
     
    and
     
       Dalton, a molecular electronic structure program,
       Release Dalton2024.0-dev (2024), see http://daltonprogram.org
   ----------------------------------------------------------------------------

    Authors in alphabetical order (Major contribution(s) in parenthesis):

  Kestutis Aidas,              Vilnius University,        Lithuania   (QM/MM)
  Celestino Angeli,            University of Ferrara,     Italy       (NEVPT2)
  Juan J. Aucar,               Northeast National UniversiArgentina   (LRESC, Relativistic Effects on EFG)
  Keld L. Bak,                 UNI-C,                     Denmark     (AOSOPPA, non-adiabatic coupling, magnetic properties)
  Vebjoern Bakken,             University of Oslo,        Norway      (DALTON; geometry optimizer, symmetry detection)
  Radovan Bast,                UiT The Arctic U. of NorwayNorway      (DALTON installation and execution frameworks)
  Pablo Baudin,                University of Valencia,    Spain       (Cholesky excitation energies)
  Linus Boman,                 NTNU,                      Norway      (Cholesky decomposition and subsystems)
  Bruno N. Cabral Tenorio,     Technical Univ. of Denmark,Denmark     (Lanczos-based CC methods)
  Ove Christiansen,            Aarhus University,         Denmark     (CC module)
  Renzo Cimiraglia,            University of Ferrara,     Italy       (NEVPT2)
  Sonia Coriani,               Technical Univ. of Denmark,Denmark     (CC and RESPONS modules)
  Janusz Cukras,               University of Warsaw,      Poland      (MChD in RESPONS)
  Paal Dahle,                  University of Oslo,        Norway      (Parallelization)
  Erik K. Dalskov,             UNI-C,                     Denmark     (SOPPA)
  Thomas Enevoldsen,           Univ. of Southern Denmark, Denmark     (SOPPA)
  Janus J. Eriksen,            Aarhus University,         Denmark     (Polarizable embedding, TDA)
  Rasmus Faber,                Technical Univ. of Denmark,Denmark     (Vib.avg. NMR w. SOPPA, parallel AO-SOPPA, CVS-CC and EOMCC)
  Tobias Fahleson,             KTH Stockholm,             Sweden      (Damped cubic response)
  Berta Fernandez,             U. of Santiago de CompostelSpain       (Doublet spin, ESR in RESPONS)
  Lara Ferrighi,               Aarhus University,         Denmark     (PCM Cubic response)
  Heike Fliegl,                University of Oslo,        Norway      (CCSD(R12))
  Luca Frediani,               UiT The Arctic U. of NorwayNorway      (PCM)
  Emmanuel Fromager,           Univ. Strasbourg,          France      (MC-srDFT)
  Bin Gao,                     UiT The Arctic U. of NorwayNorway      (Gen1Int library)
  Andre S. P. Gomes,           CNRS/Universite de Lille,  France      (Frozen density embedding)
  Christof Haettig,            Ruhr-University Bochum,    Germany     (CC module)
  Kasper Hald,                 Aarhus University,         Denmark     (CC module)
  Asger Halkier,               Aarhus University,         Denmark     (CC module)
  Frederik Beyer Hansen,       University of Copenhagen,  Denmark     (Parallel AO-SOPPA)
  Erik D. Hedegaard,           Univ. of Southern Denmark, Denmark     (Polarizable embedding, QM/MM, and MC-srDFT)
  Hanne Heiberg,               University of Oslo,        Norway      (Geometry analysis, selected one-electron integrals)
  Trygve Helgaker,             University of Oslo,        Norway      (DALTON; ABACUS, ERI, DFT modules, London, and much more)
  Alf Christian Hennum,        University of Oslo,        Norway      (Parity violation)
  Hinne Hettema,               University of Auckland,    New Zealand (Quadratic response in RESPONS; SIRIUS supersymmetry)
  Andreas E. Hillers-Bendtsen, University of Copenhagen,  Denmark     (MP3)
  Eirik Hjertenaes,            NTNU,                      Norway      (Cholesky decomposition)
  Nicolai Machholdt Hoeyer,    Aarhus University,         Denmark     (MP3)
  Pi A. B. Haase,              University of Copenhagen,  Denmark     (Triplet AO-SOPPA)
  Maria Francesca Iozzi,       University of Oslo,        Norway      (RPA)
  Christoph Jacob,             TU Braunschweig            Germany     (Frozen density embedding)
  Brano Jansik,                Technical Univ. of Ostrava Czech Rep.  (DFT cubic response)
  Hans Joergen Aa. Jensen,     Univ. of Southern Denmark, Denmark     (DALTON; SIRIUS, RESPONS, ABACUS, MC-srDFT, and much more)
  Dan Jonsson,                 UiT The Arctic U. of NorwayNorway      (Cubic response in RESPONS module)
  Poul Joergensen,             Aarhus University,         Denmark     (RESPONS, ABACUS, and CC modules)
  Maciej Kaminski,             University of Warsaw,      Poland      (CPPh in RESPONS)
  Joanna Kauczor,              Linkoeping University,     Sweden      (Complex polarization propagator (CPP) module)
  Sheela Kirpekar,             Univ. of Southern Denmark, Denmark     (Mass-velocity & Darwin integrals)
  Frederik Oersted Kjeldal,    Technical Univ. of Denmark,Denmark     (MP3)
  Erik Kjellgren,              Univ. of Southern Denmark, Denmark     (MC-srDFT)
  Wim Klopper,                 KIT Karlsruhe,             Germany     (R12 code in CC, SIRIUS, and ABACUS modules)
  Stefan Knecht,               ETH Zurich,                Switzerland (Parallel CI and MCSCF, MC-srDFT)
  Rika Kobayashi,              Australian National Univ., Australia   (DIIS in CC, London in MCSCF)
  Henrik Koch,                 NTNU,                      Norway      (CC module, Cholesky decomposition)
  Jacob Kongsted,              Univ. of Southern Denmark, Denmark     (Polarizable embedding, polarizable density embedding, QM/MM)
  Andrea Ligabue,              University of Modena,      Italy       (CTOCD, AOSOPPA)
  Nanna H. List,               Univ. of Southern Denmark, Denmark     (Polarizable embedding)
  Ola B. Lutnaes,              University of Oslo,        Norway      (DFT Hessian)
  Juan I. Melo,                University of Buenos Aires,Argentina   (LRESC, Relativistic Effects on NMR Shieldings)
  Kurt V. Mikkelsen,           University of Copenhagen,  Denmark     (MC-SCRF, QM/MM, and MP3)
  Rolf H. Myhre,               NTNU,                      Norway      (Subsystems and CC3)
  Christian Neiss,             Univ. Erlangen-Nuernberg,  Germany     (CCSD(R12))
  Christian B. Nielsen,        University of Copenhagen,  Denmark     (QM/MM)
  Patrick Norman,              KTH Stockholm,             Sweden      (Cubic response and complex frequency response in RESPONS)
  Jeppe Olsen,                 Aarhus University,         Denmark     (SIRIUS CI/density modules)
  Jogvan Magnus H. Olsen,      Aarhus University,         Denmark     (Polarizable embedding and polarizable density embedding)
  Anders Osted,                Copenhagen University,     Denmark     (QM/MM)
  Martin J. Packer,            University of Sheffield,   UK          (SOPPA)
  Filip Pawlowski,             Kazimierz Wielki UniversityPoland      (CC3)
  Morten N. Pedersen,          Univ. of Southern Denmark, Denmark     (Polarizable embedding)
  Thomas B. Pedersen,          University of Oslo,        Norway      (Cholesky decomposition)
  Patricio F. Provasi,         University of Northeastern,Argentina   (Analysis of coupling constants in localized orbitals)
  Peter Reinholdt,             Univ. of Southern Denmark, Denmark     (Polarizable embedding and polarizable density embedding)
  Zilvinas Rinkevicius,        KTH Stockholm,             Sweden      (open-shell DFT, ESR)
  Elias Rudberg,               KTH Stockholm,             Sweden      (DFT grid and basis info)
  Torgeir A. Ruden,            University of Oslo,        Norway      (Numerical derivatives in ABACUS)
  Kenneth Ruud,                UiT The Arctic U. of NorwayNorway      (DALTON; ABACUS magnetic properties and much more)
  Pawel Salek,                 KTH Stockholm,             Sweden      (DALTON; DFT code)
  Claire C. M. Samson,         University of Karlsruhe    Germany     (Boys localization, r12 integrals in ERI)
  Alfredo Sanchez de Meras,    University of Valencia,    Spain       (CC module, Cholesky decomposition)
  Trond Saue,                  Paul Sabatier University,  France      (direct Fock matrix construction)
  Stephan P. A. Sauer,         University of Copenhagen,  Denmark     (SOPPA(CCSD), SOPPA prop., AOSOPPA, vibrational g-factors)
  Bernd Schimmelpfennig,       Forschungszentrum KarlsruheGermany     (AMFI module)
  Anna K. Schnack-Petersen,    University of Copenhagen,  Denmark     (RPA(D) and HRPA(D) properties in AOSOPPA)
  Kristian Sneskov,            Aarhus University,         Denmark     (Polarizable embedding, QM/MM)
  Arnfinn H. Steindal,         UiT The Arctic U. of NorwayNorway      (parallel QM/MM, polarizable embedding)
  Casper Steinmann,            Aalborg University,        Denmark     (QFIT, polarizable embedding)
  K. O. Sylvester-Hvid,        University of Copenhagen,  Denmark     (MC-SCRF)
  Peter R. Taylor,             VLSCI/Univ. of Melbourne,  Australia   (Symmetry handling ABACUS, integral transformation)
  Andrew M. Teale,             University of Nottingham,  England     (DFT-AC, DFT-D)
  David P. Tew,                University of Bristol,     England     (CCSD(R12))
  Julien Toulouse,             Sorbonne Univ.,            France      (MC-srDFT)
  Olav Vahtras,                KTH Stockholm,             Sweden      (Triplet response, spin-orbit, ESR, TDDFT, open-shell DFT)
  Lucas Visscher,              Vrije Universiteit AmsterdaNetherlands (Frozen density embedding)
  David J. Wilson,             La Trobe University,       Australia   (DFT Hessian and DFT magnetizabilities)
  Luna Zamok,                  University of Copenhagen,  Denmark     (Block Lanczos RPA solver in SOPPA module)
  Hans Agren,                  KTH Stockholm,             Sweden      (SIRIUS module, RESPONS, MC-SCRF solvation)
 --------------------------------------------------------------------------------

     Date and time (Linux)  : Tue Jul  7 15:31:14 2026
     Host name              : n-62-31-21                              

 * Work memory size             :   512000000 =  3.815 gigabytes.

 * Directories for basis set searches:
   1) /work3/jochar/DaltonTests
   2) /zhome/d7/7/119775/My_Codes/Dalton_Release/dalton/build_omp_nov24/basis


Compilation information
-----------------------

 Who compiled             | soco
 Host                     | hpclogin1
 System                   | Linux-6.1.112-1.el9.elrepo.x86_64
 CMake generator          | Unix Makefiles
 Processor                | x86_64
 64-bit integers          | OFF
 MPI                      | OFF
 Fortran compiler         | /appl/intel/2023.2.0.49397/compiler/2023.2.0/linux
                          | /bin/intel64/ifort
 Fortran compiler version | ifort (IFORT) 2021.10.0 20230609
 C compiler               | /appl/intel/2023.2.0.49397/compiler/2023.2.0/linux
                          | /bin/intel64/icc
 C compiler version       | icc (ICC) 2021.10.0 20230609
 C++ compiler             | /appl/intel/2023.2.0.49397/compiler/2023.2.0/linux
                          | /bin/intel64/icpc
 C++ compiler version     | icpc (ICC) 2021.10.0 20230609
 Static linking           | OFF
 Last Git revision        | a531ac4fbf115ebda1c90140ce3fd6aa236a2033
 Git branch               | master
 Configuration time       | 2024-11-14 11:23:30.470039

 * Sequential calculation.


   Content of the .dal input file
 ----------------------------------

**DALTON INPUT
.RUN WAVE FUNCTIONS   !tipo di calcolo
.RUN RESPONSE
**INTEGRALS
.DIPLEN               !integrali dell'operatore dipolo elettrico
**WAVE FUNCTION
.HF
.CI
!*PRINT
!.PRINTL
!   0 11
*SCF INP              !parte da Hartree-Fock
.DOUBLY OCCUPIED
5
.THRESH               !soglia di convergenza
 1.0D-10
*CONFIGURATION INPUT
.SPIN MULTIPLICITY
1
.SYMMETRY
1
.INACTIVE ORBITALS !the inner electrons are kept frozen
1
.CAS SPACE
6
.ELECTRONS
8
**RESPONS
*LINEAR
.THCLR
1.0d-9
.DIPLEN
.SINGLE RESIDUE
.ROOTS
300
**END OF INPUT


   Content of the .mol file
 ----------------------------

BASIS
STO-3G
test VQE
dalton test
Atomtypes=2 Angstrom Nosymmetry
Charge=8.0 Atoms=1
O     0.1035000000000000  0.0000000000000000  0.0
Charge=1.0 Atoms=2
H    -0.4640000000000000  0.7956000000000000  0.0
H    -0.4640000000000000  -0.7956000000000000  0.0


       *******************************************************************
       *********** Output from DALTON general input processing ***********
       *******************************************************************

 --------------------------------------------------------------------------------
   Overall default print level:    0
   Print level for DALTON.STAT:    1

    HERMIT 1- and 2-electron integral sections will be executed
    "Old" integral transformation used (limited to max 255 basis functions)
    Wave function sections will be executed (SIRIUS module)
    Dynamic molecular response properties section will be executed (RESPONSE module)
 --------------------------------------------------------------------------------


   ****************************************************************************
   *************** Output of molecule and basis set information ***************
   ****************************************************************************


    The two title cards from your ".mol" input:
    --------------------------------------------------------------------------------
 1: test VQE
 2: dalton test
    --------------------------------------------------------------------------------

  Coordinates are entered in Angstrom and converted to atomic units.
          - Conversion factor : 1 bohr = 0.52917721 A

  Atomic type no.    1
  --------------------
  Nuclear charge:   8.00000
  Number of symmetry independent centers:    1
  Number of basis sets to read;    2
  Basis set file used for this atomic type with Z =   8 :
     "/zhome/d7/7/119775/My_Codes/Dalton_Release/dalton/build_omp_nov24/basis/STO-3G"

  Atomic type no.    2
  --------------------
  Nuclear charge:   1.00000
  Number of symmetry independent centers:    2
  Number of basis sets to read;    2
  Basis set file used for this atomic type with Z =   1 :
     "/zhome/d7/7/119775/My_Codes/Dalton_Release/dalton/build_omp_nov24/basis/STO-3G"


                         SYMGRP: Point group information
                         -------------------------------

@    Point group: C1 


                                 Isotopic Masses
                                 ---------------

                           O          15.994915
                           H           1.007825
                           H           1.007825

                       Total mass:    18.010565 amu
                       Natural abundance:  99.730 %

 Center-of-mass coordinates (a.u.):    0.075567    0.000000    0.000000
 Center-of-mass coordinates (Angs):    0.039988    0.000000    0.000000


  Atoms and basis sets
  --------------------

  Number of atom types :    2
  Total number of atoms:    3

  Basis set used is "STO-3G" from the basis set library.

  label    atoms   charge   prim   cont     basis
  ----------------------------------------------------------------------
  O           1    8.0000    15     5      [6s3p|2s1p]                                        
  H           2    1.0000     3     1      [3s|1s]                                            
  ----------------------------------------------------------------------
  total:      3   10.0000    21     7
  ----------------------------------------------------------------------

  Threshold for neglecting AO integrals:  1.00D-12


  Cartesian Coordinates (a.u.)
  ----------------------------

  Total number of coordinates:    9
  O       :     1  x   0.1955866539    2  y   0.0000000000    3  z   0.0000000000
  H       :     4  x  -0.8768329220    5  y   1.5034661050    6  z   0.0000000000
  H       :     7  x  -0.8768329220    8  y  -1.5034661050    9  z   0.0000000000


   Interatomic separations (in Angstrom):
   --------------------------------------

            O           H           H     
            ------      ------      ------
 O     :    0.000000
 H     :    0.977259    0.000000
 H     :    0.977259    1.591200    0.000000


  Max    interatomic separation is    1.5912 Angstrom (    3.0069 Bohr)
  between atoms    3 and    2, "H     " and "H     ".

  Min HX interatomic separation is    0.9773 Angstrom (    1.8468 Bohr)


  Bond distances (Angstrom):
  --------------------------

                  atom 1     atom 2       distance
                  ------     ------       --------
  bond distance:  H          O            0.977259
  bond distance:  H          O            0.977259


  Bond angles (degrees):
  ----------------------

                  atom 1     atom 2     atom 3         angle
                  ------     ------     ------         -----
  bond angle:     H          O          H            109.000




 Principal moments of inertia (u*A**2) and principal axes
 --------------------------------------------------------

   IA       0.576503          0.000000    1.000000    0.000000
   IB       1.275865          1.000000    0.000000    0.000000
   IC       1.852368          0.000000    0.000000    1.000000


 Rotational constants
 --------------------

@    The molecule is planar.

               A                   B                   C

         876628.8169         396107.0071         272828.6660 MHz
           29.241190           13.212708            9.100585 cm-1


@  Nuclear repulsion energy :    8.996423008986 Hartree


                     .---------------------------------------.
                     | Starting in Integral Section (HERMIT) |
                     `---------------------------------------'



 ***************************************************************************************
 ****************** Output from **INTEGRALS input processing (HERMIT) ******************
 ***************************************************************************************



    *************************************************************************
    ****************** Output from HERMIT input processing ******************
    *************************************************************************


 Default print level:        1

 Calculation of one- and two-electron Hamiltonian integrals.

 The following one-electron property integrals are calculated as requested:
          - overlap integrals
          - dipole length integrals

 Center of mass  (bohr):      0.075566958928      0.000000000000      0.000000000000
 Operator center (bohr):      0.000000000000      0.000000000000      0.000000000000
 Gauge origin    (bohr):      0.000000000000      0.000000000000      0.000000000000
 Dipole origin   (bohr):      0.000000000000      0.000000000000      0.000000000000

Calculation of 2-electron integrals are postponed until they are needed.


     ************************************************************************
     ************************** Output from HERINT **************************
     ************************************************************************



                      Nuclear contribution to dipole moments
                      --------------------------------------

                 au               Debye          C m (/(10**-30)

      x     -0.18897261        -0.48032044        -1.60217653
      y      0.00000000         0.00000000         0.00000000
      z      0.00000000         0.00000000         0.00000000


  Total CPU  time used in HERMIT:   0.01 seconds
  Total wall time used in HERMIT:   0.04 seconds


                        .----------------------------------.
                        | End of Integral Section (HERMIT) |
                        `----------------------------------'



                   .--------------------------------------------.
                   | Starting in Wave Function Section (SIRIUS) |
                   `--------------------------------------------'


     WARNING  Reference state is required for CI response and CI-NO
     WARNING  ".STATE" was not specified for "*CI INPUT",
     WARNING  the reference state is set to be state no.  1

 *** Output from Huckel module :

     Using EWMO model:          T
     Using EHT  model:          F
     Number of Huckel orbitals each symmetry:    7

 EWMO - Energy Weighted Maximum Overlap - is a Huckel type method,
        which normally is better than Extended Huckel Theory.
 Reference: Linderberg and Ohrn, Propagators in Quantum Chemistry (Wiley, 1973)

 Huckel EWMO eigenvalues for symmetry :  1
          -20.684655      -1.594745      -0.787122      -0.682665      -0.616200
           -0.240931      -0.173582

 **********************************************************************
 *SIRIUS* a direct, restricted step, second order MCSCF program       *
 **********************************************************************

 
     Date and time (Linux)  : Tue Jul  7 15:31:14 2026
     Host name              : n-62-31-21                              

 Title lines from ".mol" input file:
     test VQE
     dalton test

 Print level on unit LUPRI =   2 is   0
 Print level on unit LUW4  =   2 is   5

@    Configuration interaction calculation.

@    CI response calculation.

@    CI type: user specified active spaces.
@              Type: complete active space calculation (CAS).

@    This is a combination run starting with
@              a restricted, closed shell Hartree-Fock calculation


 Initial molecular orbitals are obtained according to
 ".MOSTART EWMO  " input option

     Wave function specification
     ============================
@    Wave function type        --- CI ---
@    Number of closed shell electrons           2
@    Number of electrons in active shells       8
@    Total charge of the molecule               0

@    Spin multiplicity and 2 M_S                1         0
@    Total number of symmetries                 1 (point group: C1 )
@    Reference state symmetry                   1 (irrep name : A  )

     Orbital specifications
     ======================
@    Abelian symmetry species          All |    1
@                                          |  A  
                                       --- |  ---
@    Inactive orbitals                   1 |    1
@    Active orbitals                     6 |    6
@    Secondary orbitals                  0 |    0
@    Total number of orbitals            7 |    7
@    Number of basis functions           7 |    7

      -- Initial occupation of symmetries is determined from user input.                      
      -- Initial occupation of symmetries is :
@    Occupied SCF orbitals               5 |    5

     Optimization information
     ========================
@    Number of configurations               105
@    Number of orbital rotations              0
     ------------------------------------------
@    Total number of variables              105

     Maximum number of CI iterations         25
     Threshold for CI convergence      1.00D-05
     Number of CI roots to converge           1

@    Reference state in CI response calculation :       1


 ***********************************************
 ***** DIIS acceleration of SCF iterations *****
 ***********************************************

 C1-DIIS algorithm; max error vectors =    8

 Iter      Total energy        Error norm    Delta(E)  DIIS dim.
 -----------------------------------------------------------------------------

Calculating AOSUPINT

---> (Re)generating AOTWOINT


     ************************************************************************
     ************************** Output from HERINT **************************
     ************************************************************************


 Threshold for neglecting two-electron integrals:  1.00D-12
 HERMIT - Number of two-electron integrals written:         228 ( 56.2% )
 HERMIT - Megabytes written:                              0.137

     (Precalculated AO two-electron integrals are transformed to P-supermatrix elements.
      Threshold for discarding integrals :  1.00D-12 )

@  1    -74.9147546503        7.22428D-01   -7.49D+01    1
      Virial theorem: -V/T =      2.004517
@    MULPOP   O      -0.46; H       0.23; H       0.23; 
   1  Level shift: doubly occupied orbital energies shifted by -2.00D-01
 -----------------------------------------------------------------------------
@  2    -74.9573554605        2.18829D-01   -4.26D-02    2
      Virial theorem: -V/T =      2.006532
@    MULPOP   O      -0.37; H       0.18; H       0.18; 
   2  Level shift: doubly occupied orbital energies shifted by -1.00D-01
 -----------------------------------------------------------------------------
@  3    -74.9622160084        3.60736D-02   -4.86D-03    3
      Virial theorem: -V/T =      2.005790
@    MULPOP   O      -0.36; H       0.18; H       0.18; 
   3  Level shift: doubly occupied orbital energies shifted by -2.50D-02
 -----------------------------------------------------------------------------
@  4    -74.9623530973        2.91022D-03   -1.37D-04    4
      Virial theorem: -V/T =      2.005607
@    MULPOP   O      -0.36; H       0.18; H       0.18; 
 -----------------------------------------------------------------------------
@  5    -74.9623547782        3.33498D-04   -1.68D-06    5
      Virial theorem: -V/T =      2.005590
@    MULPOP   O      -0.36; H       0.18; H       0.18; 
 -----------------------------------------------------------------------------
@  6    -74.9623547998        8.44260D-06   -2.15D-08    6
      Virial theorem: -V/T =      2.005591
@    MULPOP   O      -0.36; H       0.18; H       0.18; 
 -----------------------------------------------------------------------------
@  7    -74.9623547998        5.44501D-08   -1.04D-11    7
      Virial theorem: -V/T =      2.005591
@    MULPOP   O      -0.36; H       0.18; H       0.18; 
 -----------------------------------------------------------------------------
@  8    -74.9623547998        1.29942D-09    0.00D+00    8
      Virial theorem: -V/T =      2.005591
@    MULPOP   O      -0.36; H       0.18; H       0.18; 
 -----------------------------------------------------------------------------
@  9    -74.9623547998        2.89494D-08    0.00D+00    8
      Virial theorem: -V/T =      2.005591
@    MULPOP   O      -0.36; H       0.18; H       0.18; 
 -----------------------------------------------------------------------------
@ 10    -74.9623547998        9.82237D-15    2.84D-14    8

@ *** DIIS converged in  10 iterations !
@     Converged SCF energy, gradient:    -74.962354799773    9.82D-15
    - total time used in SIRFCK :              0.00 seconds

 --- Writing SIRIFC interface file

--------------------------------------------------------------------------------


     .--------------------------------------------------.
     | HF-SCF KT IPs [a.u. & eV] from Koopmans' theorem |
     `--------------------------------------------------'


     HF-SCF KT symmetry 1 ( A  ) in point group C1  -- 5 principal poles with pole strength 1

   ============  ============  ============  ============  ============
      20.237430      1.253011      0.614069      0.439628      0.386334
     550.688496     34.096172     16.709655     11.962878     10.512676
   ============  ============  ============  ============  ============

@ Summary of HF-SCF KT ionization potentials [eV]:

@ Symmetry 1 (A  ) :   550.688      34.096      16.710      11.963      10.513

  === End of HF-SCF KT output ===
--------------------------------------------------------------------------------


 CPU and wall time for SCF :       0.064       0.534


 ----- Output from SIRIUS CI module (CICTL) -----




 2-el. integral transformation level 0: Total CPU and WALL times (sec)       0.007       0.152

 (CIST1) 8 lowest diagonal elements:

 Element no. Config.no.    Active energy      Total energy

         1 :          1    -23.3421841005    -74.9623547998
         2 :         16    -22.9240729313    -74.5442436305
         3 :         17    -22.8244709762    -74.4446416755
         4 :         19    -22.8017554798    -74.4219261791
         5 :         20    -22.7105115059    -74.3306822052
         6 :         22    -22.6426360684    -74.2628067677
         7 :         23    -22.4504639542    -74.0706346535
         8 :         76    -22.2033718328    -73.8235425321

Lowest 1 elements are used as separate start CI vectors.


 Convergence threshold for CI optimization :     0.00001000


 CI root     eigenvalue        residual norm

    1      -74.9623547998        0.3145833701

 CI root     eigenvalue        residual norm

    1      -75.0115237177        0.0698727111

 CI root     eigenvalue        residual norm

    1      -75.0135593103        0.0165906421

 CI root     eigenvalue        residual norm

    1      -75.0136717345        0.0029164481

 CI root     eigenvalue        residual norm

    1      -75.0136764777        0.0005923792

 CI root     eigenvalue        residual norm

    1      -75.0136766192        0.0000860183

 CI root     eigenvalue        residual norm

    1      -75.0136766225        0.0000121745

 CI root     eigenvalue        residual norm

    1      -75.0136766226        0.0000018700 converged

 The requested root number is now converged.


 *** CI converged in  8 iterations.



@ Final CI energies and residuals in symmetry 1 (irrep A  )
@    1      -75.013676622563523       1.87D-06

 Writing SIRIFC interface file for CI root no. 1

 CPU and wall time for CI :       0.022       0.278


                       .-----------------------------------.
                       | --- Final results from SIRIUS --- |
                       `-----------------------------------'


@    Spin multiplicity:           1
@    Spatial symmetry:            1 ( irrep  A   in C1  )
@    Total charge of molecule:    0

@    This was a CI calculation.
@    State number:                1

@    Final CI energy:             -75.013676622564
@    Nuclear repulsion:             8.996423008986
@    Electronic energy:           -84.010099631549

@    Final gradient norm:           0.000001870010

 
     Date and time (Linux)  : Tue Jul  7 15:31:15 2026
     Host name              : n-62-31-21                              

 Occupancies of natural orbitals
 -------------------------------

 Symmetry 1  ( A  ) -- Total occupation in this symmetry is  10.000000000

   2.000000000   1.997901139   1.972366858   1.974920145   1.998236786
   0.028964231   0.027610841

  Effective numbers of unpaired electrons this symmetry Eqs. 1) and 2):  0.22  0.01

  Total effective number of unpaired electrons :
  Eq. 1) sum(i) [(2 - n_i) n_i]    =  0.2233
  Eq. 2) sum(i) [(2 - n_i) n_i]**2 =  0.0117
 (Reference: M. Head-Gordon, Chemical Physics Letters 372 (2003) 508-511)

  --- NOTE THAT THE OCCUPATION NUMBERS ARE FOR ANALYSIS PURPOSE ONLY
  --- The orbital coefficients have NOT been transformed
  --- to ordered natural orbitals.

File label for MO orbitals:   7Jul26    CIORB  

 (Only coefficients > 0.0100 are printed.)

 Molecular orbitals for symmetry species 1  (A  )
 ------------------------------------------------

    Orbital         1        2        3        4        5        6        7
   1 O   :1s    -0.9942   0.2339   0.0000   0.0993  -0.0000   0.1315  -0.0000
   2 O   :1s    -0.0262  -0.8416  -0.0000  -0.5170   0.0000  -0.8601   0.0000
   3 O   :2px    0.0040   0.1182  -0.0000  -0.7863   0.0000   0.7166  -0.0000
   4 O   :2py    0.0000  -0.0000  -0.5996  -0.0000   0.0000  -0.0000  -0.9917
   5 O   :2pz   -0.0000  -0.0000  -0.0000  -0.0000  -1.0000   0.0000   0.0000
   6 H   :1s     0.0058  -0.1581  -0.4440   0.2807   0.0000   0.7874   0.8181
   7 H   :1s     0.0058  -0.1581   0.4440   0.2807  -0.0000   0.7874  -0.8181

 Printout of CI-coefficients abs greater than 0.05000 for root  1
 *** NOTE: this root is the CI reference state ***

 Printout of coefficients in interval  3.1623E-01 to  1.0000E+00
 ===============================================================

  Coefficient of CSF no.         1 is      0.98566197    9.85661974E-01
  Orbital          1   2   3   4
  Spin coupling    2   2   2   2

 Printout of coefficients in interval  1.0000E-01 to  3.1623E-01
 ===============================================================
   ( no coefficients )

 Printout of coefficients in interval  5.0000E-02 to  1.0000E-01
 ===============================================================

  Coefficient of CSF no.         8 is     -0.07749992   -7.74999202E-02
  Orbital          1   3   4   6
  Spin coupling    2   2   2   2

  Coefficient of CSF no.        83 is     -0.08532390   -8.53239030E-02
  Orbital          1   4   2   3   5   6
  Spin coupling    2   2   1  -1   1  -1

  Coefficient of CSF no.        87 is      0.05213569    5.21356866E-02
  Orbital          3   4   1   2   5   6
  Spin coupling    2   2   1  -1   1  -1

 Norm of printed CI vector ..      0.98753406

 Magnitude of CI coefficients
 ============================
 ( Ranges are relative to norm of vector :  1.00E+00 )

  10- 1 to 10- 0         1    0.97152953E+00      0.9715295262
  10- 2 to 10- 1        15    0.28282610E-01      0.9998121364
  10- 3 to 10- 2        13    0.18605088E-03      0.9999981873
  10- 4 to 10- 3         7    0.18076524E-05      0.9999999949
  10- 5 to 10- 4         1    0.50764249E-08      1.0000000000
  Number of coefficients less than 10^-11 times norm is           68

  Total CPU  time used in SIRIUS :   0.11 seconds
  Total wall time used in SIRIUS :   0.90 seconds

 
     Date and time (Linux)  : Tue Jul  7 15:31:15 2026
     Host name              : n-62-31-21                              


                     .---------------------------------------.
                     | End of Wave Function Section (SIRIUS) |
                     `---------------------------------------'



                 .------------------------------------------------.
                 | Starting in Dynamic Property Section (RESPONS) |
                 `------------------------------------------------'


 ----------------------------------------------------------------------------------------
  RESPONSE  -  an MCSCF, MC-srDFT, DFT, SOPPA and SOPPA-srDFT response property program
 ----------------------------------------------------------------------------------------

 This is a configuration interaction response calculation.
   Note: this is equivalent to a CI sum-over-states calculation of response properties.


 -------- OUTPUT FROM RESPONSE INPUT PROCESSING --------




  Linear Response single residue calculation
 -------------------------------------------


    4 input options by user.

 Print level                                    : IPRPP  =   2
 Maximum number of iterations for eigenval.eqs. : MAXITP =  60
 Threshold for convergence of eigenvalue eqs.   : THCPP  = 1.000D-03
 Maximum iterations in optimal orbital algorithm: MAXITO =   5

    300 Excitation energies are calculated for symmetry no.    1

      3 property residues are calculated with labels:

               XDIPLEN 
               YDIPLEN 
               ZDIPLEN 

 Old direct access AO file found, SORTA skipped.

 2-el. integral transformation level 4: Total CPU and WALL times (sec)       0.006       0.036


 CI energy            :      -75.013676622563523
 -- inactive part     :      -51.620170699281417
 --   active part     :      -23.393505923282106
 -- nuclear repulsion :        8.996423008985666


                         *******************************
                         *** CI response calculation ***
                         *******************************

 ----------------------------------------------------------------
 ----- Linear response calculation
 ----- Symmetry of excitation/property operator(s)    1  ( A  )
 ----------------------------------------------------------------

 Number of excitations of this symmetry          300
 Number of response properties of this symmetry    0
 Number of C6/C8 properties of this symmetry       0


 Perturbation symmetry.     KSYMOP:           1
 Perturbation spin symmetry.TRPLET:           F
 Orbital variables.         KZWOPT:           0
 Configuration variables.   KZCONF:         105
 Total number of variables. KZVAR :         105

 ** RSPVAR ** Number of PP start vectors  300
   exceeds the maximum number of variables  104
   Number of start vectors reset to number of variables



 --- EXCITATION ENERGIES AND TRANSITION MOMENT CALCULATION (MCTDHF) ---

 Operator symmetry = 1  ( A  ); triplet =   F

RSPORT:    1 out of  105 new trial vectors linear dependent

 ** RSPCTL MICROITERATION NUMBER    1

      Root  Residual tot.,    conf., and orb.    Bnorm      Eigenvalue
      ----------------------------------------------------------------
         1    4.23551D-15  4.24D-15  0.00D+00  1.00D+00    4.27710D-01
         2    4.92522D-15  4.93D-15  0.00D+00  1.00D+00    5.26169D-01
         3    4.02371D-15  4.02D-15  0.00D+00  1.00D+00    5.62900D-01
         4    5.13177D-15  5.13D-15  0.00D+00  1.00D+00    6.71271D-01
         5    4.82655D-15  4.83D-15  0.00D+00  1.00D+00    8.08637D-01
         6    9.91556D-15  9.92D-15  0.00D+00  1.00D+00    9.57333D-01
         7    6.87047D-15  6.87D-15  0.00D+00  1.00D+00    1.03139D+00
         8    8.21636D-15  8.22D-15  0.00D+00  1.00D+00    1.04951D+00
         9    7.45487D-15  7.45D-15  0.00D+00  1.00D+00    1.06310D+00
        10    7.00624D-15  7.01D-15  0.00D+00  1.00D+00    1.13206D+00
        11    7.07770D-15  7.08D-15  0.00D+00  1.00D+00    1.21491D+00
        12    8.10443D-15  8.10D-15  0.00D+00  1.00D+00    1.25336D+00
        13    7.71739D-15  7.72D-15  0.00D+00  1.00D+00    1.30921D+00
        14    5.25780D-15  5.26D-15  0.00D+00  1.00D+00    1.31403D+00
        15    9.92467D-15  9.92D-15  0.00D+00  1.00D+00    1.34369D+00
        16    8.10685D-15  8.11D-15  0.00D+00  1.00D+00    1.34953D+00
        17    7.05458D-15  7.05D-15  0.00D+00  1.00D+00    1.39163D+00
        18    4.76531D-15  4.77D-15  0.00D+00  1.00D+00    1.40555D+00
        19    6.82116D-15  6.82D-15  0.00D+00  1.00D+00    1.41722D+00
        20    6.45063D-15  6.45D-15  0.00D+00  1.00D+00    1.45497D+00
        21    9.58774D-15  9.59D-15  0.00D+00  1.00D+00    1.50547D+00
        22    5.03359D-15  5.03D-15  0.00D+00  1.00D+00    1.50741D+00
        23    7.62299D-15  7.62D-15  0.00D+00  1.00D+00    1.51060D+00
        24    7.63142D-15  7.63D-15  0.00D+00  1.00D+00    1.52249D+00
        25    1.02143D-14  1.02D-14  0.00D+00  1.00D+00    1.55447D+00
        26    6.24405D-15  6.24D-15  0.00D+00  1.00D+00    1.68493D+00
        27    1.21838D-14  1.22D-14  0.00D+00  1.00D+00    1.70972D+00
        28    1.24718D-14  1.25D-14  0.00D+00  1.00D+00    1.76415D+00
        29    8.77603D-15  8.78D-15  0.00D+00  1.00D+00    1.82958D+00
        30    6.65978D-15  6.66D-15  0.00D+00  1.00D+00    1.83197D+00
        31    7.34946D-15  7.35D-15  0.00D+00  1.00D+00    1.86375D+00
        32    7.61379D-15  7.61D-15  0.00D+00  1.00D+00    1.89825D+00
        33    6.47729D-15  6.48D-15  0.00D+00  1.00D+00    1.90176D+00
        34    9.89028D-15  9.89D-15  0.00D+00  1.00D+00    1.95012D+00
        35    7.50452D-15  7.50D-15  0.00D+00  1.00D+00    1.98507D+00
        36    6.90666D-15  6.91D-15  0.00D+00  1.00D+00    2.02657D+00
        37    8.60445D-15  8.60D-15  0.00D+00  1.00D+00    2.03560D+00
        38    1.30397D-14  1.30D-14  0.00D+00  1.00D+00    2.03676D+00
        39    5.36047D-15  5.36D-15  0.00D+00  1.00D+00    2.09097D+00
        40    1.06972D-14  1.07D-14  0.00D+00  1.00D+00    2.11965D+00
        41    8.30087D-15  8.30D-15  0.00D+00  1.00D+00    2.12335D+00
        42    6.27494D-15  6.27D-15  0.00D+00  1.00D+00    2.12426D+00
        43    5.55361D-15  5.55D-15  0.00D+00  1.00D+00    2.14509D+00
        44    7.56168D-15  7.56D-15  0.00D+00  1.00D+00    2.18098D+00
        45    8.15249D-15  8.15D-15  0.00D+00  1.00D+00    2.19657D+00
        46    5.65757D-15  5.66D-15  0.00D+00  1.00D+00    2.20735D+00
        47    6.64116D-15  6.64D-15  0.00D+00  1.00D+00    2.23751D+00
        48    7.37183D-15  7.37D-15  0.00D+00  1.00D+00    2.28948D+00
        49    6.71446D-15  6.71D-15  0.00D+00  1.00D+00    2.30757D+00
        50    6.30475D-15  6.30D-15  0.00D+00  1.00D+00    2.32206D+00
        51    8.68294D-15  8.68D-15  0.00D+00  1.00D+00    2.33084D+00
        52    7.81174D-15  7.81D-15  0.00D+00  1.00D+00    2.35718D+00
        53    7.07545D-15  7.08D-15  0.00D+00  1.00D+00    2.39144D+00
        54    5.56428D-15  5.56D-15  0.00D+00  1.00D+00    2.42055D+00
        55    9.41484D-15  9.41D-15  0.00D+00  1.00D+00    2.49330D+00
        56    1.05146D-14  1.05D-14  0.00D+00  1.00D+00    2.54386D+00
        57    9.74263D-15  9.74D-15  0.00D+00  1.00D+00    2.55924D+00
        58    7.76948D-15  7.77D-15  0.00D+00  1.00D+00    2.61580D+00
        59    9.21429D-15  9.21D-15  0.00D+00  1.00D+00    2.68126D+00
        60    1.05396D-14  1.05D-14  0.00D+00  1.00D+00    2.68307D+00
        61    1.28874D-14  1.29D-14  0.00D+00  1.00D+00    2.70678D+00
        62    7.10684D-15  7.11D-15  0.00D+00  1.00D+00    2.75033D+00
        63    6.15857D-15  6.16D-15  0.00D+00  1.00D+00    2.79299D+00
        64    1.01772D-14  1.02D-14  0.00D+00  1.00D+00    2.81158D+00
        65    1.04148D-14  1.04D-14  0.00D+00  1.00D+00    2.81220D+00
        66    1.15109D-14  1.15D-14  0.00D+00  1.00D+00    2.82208D+00
        67    1.54458D-14  1.54D-14  0.00D+00  1.00D+00    2.89255D+00
        68    1.44886D-14  1.45D-14  0.00D+00  1.00D+00    2.92113D+00
        69    1.00055D-14  1.00D-14  0.00D+00  1.00D+00    2.92221D+00
        70    1.25268D-14  1.25D-14  0.00D+00  1.00D+00    2.92820D+00
        71    1.27274D-14  1.27D-14  0.00D+00  1.00D+00    2.96926D+00
        72    1.05682D-14  1.06D-14  0.00D+00  1.00D+00    2.97880D+00
        73    1.32568D-14  1.33D-14  0.00D+00  1.00D+00    2.98177D+00
        74    1.38462D-14  1.38D-14  0.00D+00  1.00D+00    2.99143D+00
        75    1.42349D-14  1.42D-14  0.00D+00  1.00D+00    3.02098D+00
        76    9.78042D-15  9.78D-15  0.00D+00  1.00D+00    3.03733D+00
        77    1.28423D-14  1.28D-14  0.00D+00  1.00D+00    3.08739D+00
        78    1.13816D-14  1.14D-14  0.00D+00  1.00D+00    3.09901D+00
        79    1.64116D-14  1.64D-14  0.00D+00  1.00D+00    3.11853D+00
        80    8.55102D-15  8.55D-15  0.00D+00  1.00D+00    3.15634D+00
        81    8.24887D-15  8.25D-15  0.00D+00  1.00D+00    3.17698D+00
        82    1.15564D-14  1.16D-14  0.00D+00  1.00D+00    3.22959D+00
        83    1.86656D-14  1.87D-14  0.00D+00  1.00D+00    3.24251D+00
        84    7.82969D-15  7.83D-15  0.00D+00  1.00D+00    3.32606D+00
        85    1.23509D-14  1.24D-14  0.00D+00  1.00D+00    3.45138D+00
        86    1.88731D-14  1.89D-14  0.00D+00  1.00D+00    3.55682D+00
        87    2.48866D-14  2.49D-14  0.00D+00  1.00D+00    3.56600D+00
        88    1.35552D-14  1.36D-14  0.00D+00  1.00D+00    3.61657D+00
        89    9.62511D-15  9.63D-15  0.00D+00  1.00D+00    3.75110D+00
        90    2.82610D-14  2.83D-14  0.00D+00  1.00D+00    3.76406D+00
        91    1.65214D-14  1.65D-14  0.00D+00  1.00D+00    3.77573D+00
        92    1.83380D-14  1.83D-14  0.00D+00  1.00D+00    3.79303D+00
        93    1.89177D-14  1.89D-14  0.00D+00  1.00D+00    3.83856D+00
        94    1.66366D-14  1.66D-14  0.00D+00  1.00D+00    3.87248D+00
        95    2.64326D-14  2.64D-14  0.00D+00  1.00D+00    3.87518D+00
        96    1.39599D-14  1.40D-14  0.00D+00  1.00D+00    3.93043D+00
        97    1.49393D-14  1.49D-14  0.00D+00  1.00D+00    3.94891D+00
        98    1.39353D-14  1.39D-14  0.00D+00  1.00D+00    4.01589D+00
        99    1.46676D-14  1.47D-14  0.00D+00  1.00D+00    4.28712D+00
       100    1.23956D-14  1.24D-14  0.00D+00  1.00D+00    4.30873D+00
       101    2.49111D-14  2.49D-14  0.00D+00  1.00D+00    4.36300D+00
       102    1.32626D-14  1.33D-14  0.00D+00  1.00D+00    4.42015D+00
       103    2.19830D-14  2.20D-14  0.00D+00  1.00D+00    4.44878D+00
       104    2.02692D-14  2.03D-14  0.00D+00  1.00D+00    4.61053D+00
       105    4.51646D-15  4.52D-15  0.00D+00  1.00D+00   -4.27710D-01

 *** THE REQUESTED  104 SOLUTION VECTORS CONVERGED

 Convergence of RSP solution vectors, threshold = 1.00D-03
 ---------------------------------------------------------------
 (dimension of paired reduced space:  208)
 RSP solution vector no.    1; norm of residual   4.24D-15
 RSP solution vector no.    2; norm of residual   4.93D-15
 RSP solution vector no.    3; norm of residual   4.02D-15
 RSP solution vector no.    4; norm of residual   5.13D-15
 RSP solution vector no.    5; norm of residual   4.83D-15
 RSP solution vector no.    6; norm of residual   9.92D-15
 RSP solution vector no.    7; norm of residual   6.87D-15
 RSP solution vector no.    8; norm of residual   8.22D-15
 RSP solution vector no.    9; norm of residual   7.45D-15
 RSP solution vector no.   10; norm of residual   7.01D-15
 RSP solution vector no.   11; norm of residual   7.08D-15
 RSP solution vector no.   12; norm of residual   8.10D-15
 RSP solution vector no.   13; norm of residual   7.72D-15
 RSP solution vector no.   14; norm of residual   5.26D-15
 RSP solution vector no.   15; norm of residual   9.92D-15
 RSP solution vector no.   16; norm of residual   8.11D-15
 RSP solution vector no.   17; norm of residual   7.05D-15
 RSP solution vector no.   18; norm of residual   4.77D-15
 RSP solution vector no.   19; norm of residual   6.82D-15
 RSP solution vector no.   20; norm of residual   6.45D-15
 RSP solution vector no.   21; norm of residual   9.59D-15
 RSP solution vector no.   22; norm of residual   5.03D-15
 RSP solution vector no.   23; norm of residual   7.62D-15
 RSP solution vector no.   24; norm of residual   7.63D-15
 RSP solution vector no.   25; norm of residual   1.02D-14
 RSP solution vector no.   26; norm of residual   6.24D-15
 RSP solution vector no.   27; norm of residual   1.22D-14
 RSP solution vector no.   28; norm of residual   1.25D-14
 RSP solution vector no.   29; norm of residual   8.78D-15
 RSP solution vector no.   30; norm of residual   6.66D-15
 RSP solution vector no.   31; norm of residual   7.35D-15
 RSP solution vector no.   32; norm of residual   7.61D-15
 RSP solution vector no.   33; norm of residual   6.48D-15
 RSP solution vector no.   34; norm of residual   9.89D-15
 RSP solution vector no.   35; norm of residual   7.50D-15
 RSP solution vector no.   36; norm of residual   6.91D-15
 RSP solution vector no.   37; norm of residual   8.60D-15
 RSP solution vector no.   38; norm of residual   1.30D-14
 RSP solution vector no.   39; norm of residual   5.36D-15
 RSP solution vector no.   40; norm of residual   1.07D-14
 RSP solution vector no.   41; norm of residual   8.30D-15
 RSP solution vector no.   42; norm of residual   6.27D-15
 RSP solution vector no.   43; norm of residual   5.55D-15
 RSP solution vector no.   44; norm of residual   7.56D-15
 RSP solution vector no.   45; norm of residual   8.15D-15
 RSP solution vector no.   46; norm of residual   5.66D-15
 RSP solution vector no.   47; norm of residual   6.64D-15
 RSP solution vector no.   48; norm of residual   7.37D-15
 RSP solution vector no.   49; norm of residual   6.71D-15
 RSP solution vector no.   50; norm of residual   6.30D-15
 RSP solution vector no.   51; norm of residual   8.68D-15
 RSP solution vector no.   52; norm of residual   7.81D-15
 RSP solution vector no.   53; norm of residual   7.08D-15
 RSP solution vector no.   54; norm of residual   5.56D-15
 RSP solution vector no.   55; norm of residual   9.41D-15
 RSP solution vector no.   56; norm of residual   1.05D-14
 RSP solution vector no.   57; norm of residual   9.74D-15
 RSP solution vector no.   58; norm of residual   7.77D-15
 RSP solution vector no.   59; norm of residual   9.21D-15
 RSP solution vector no.   60; norm of residual   1.05D-14
 RSP solution vector no.   61; norm of residual   1.29D-14
 RSP solution vector no.   62; norm of residual   7.11D-15
 RSP solution vector no.   63; norm of residual   6.16D-15
 RSP solution vector no.   64; norm of residual   1.02D-14
 RSP solution vector no.   65; norm of residual   1.04D-14
 RSP solution vector no.   66; norm of residual   1.15D-14
 RSP solution vector no.   67; norm of residual   1.54D-14
 RSP solution vector no.   68; norm of residual   1.45D-14
 RSP solution vector no.   69; norm of residual   1.00D-14
 RSP solution vector no.   70; norm of residual   1.25D-14
 RSP solution vector no.   71; norm of residual   1.27D-14
 RSP solution vector no.   72; norm of residual   1.06D-14
 RSP solution vector no.   73; norm of residual   1.33D-14
 RSP solution vector no.   74; norm of residual   1.38D-14
 RSP solution vector no.   75; norm of residual   1.42D-14
 RSP solution vector no.   76; norm of residual   9.78D-15
 RSP solution vector no.   77; norm of residual   1.28D-14
 RSP solution vector no.   78; norm of residual   1.14D-14
 RSP solution vector no.   79; norm of residual   1.64D-14
 RSP solution vector no.   80; norm of residual   8.55D-15
 RSP solution vector no.   81; norm of residual   8.25D-15
 RSP solution vector no.   82; norm of residual   1.16D-14
 RSP solution vector no.   83; norm of residual   1.87D-14
 RSP solution vector no.   84; norm of residual   7.83D-15
 RSP solution vector no.   85; norm of residual   1.24D-14
 RSP solution vector no.   86; norm of residual   1.89D-14
 RSP solution vector no.   87; norm of residual   2.49D-14
 RSP solution vector no.   88; norm of residual   1.36D-14
 RSP solution vector no.   89; norm of residual   9.63D-15
 RSP solution vector no.   90; norm of residual   2.83D-14
 RSP solution vector no.   91; norm of residual   1.65D-14
 RSP solution vector no.   92; norm of residual   1.83D-14
 RSP solution vector no.   93; norm of residual   1.89D-14
 RSP solution vector no.   94; norm of residual   1.66D-14
 RSP solution vector no.   95; norm of residual   2.64D-14
 RSP solution vector no.   96; norm of residual   1.40D-14
 RSP solution vector no.   97; norm of residual   1.49D-14
 RSP solution vector no.   98; norm of residual   1.39D-14
 RSP solution vector no.   99; norm of residual   1.47D-14
 RSP solution vector no.  100; norm of residual   1.24D-14
 RSP solution vector no.  101; norm of residual   2.49D-14
 RSP solution vector no.  102; norm of residual   1.33D-14
 RSP solution vector no.  103; norm of residual   2.20D-14
 RSP solution vector no.  104; norm of residual   2.03D-14

 *** RSPCTL MICROITERATIONS CONVERGED

@ Singlet transition operator label: XDIPLEN 
@ STATE NO:    1 *TRANSITION MOMENT:  2.65084172E-15 *ENERGY(eV):   11.638569    
@ STATE NO:    2 *TRANSITION MOMENT:  8.90127389E-16 *ENERGY(eV):   14.317778    
@ STATE NO:    3 *TRANSITION MOMENT:  0.40906956     *ENERGY(eV):   15.317284    
@ STATE NO:    4 *TRANSITION MOMENT:  5.36815225E-15 *ENERGY(eV):   18.266221    
@ STATE NO:    5 *TRANSITION MOMENT:  2.12139119E-14 *ENERGY(eV):   22.004124    
@ STATE NO:    6 *TRANSITION MOMENT: -0.28771077     *ENERGY(eV):   26.050349    
@ STATE NO:    7 *TRANSITION MOMENT:  7.20120677E-15 *ENERGY(eV):   28.065446    
@ STATE NO:    8 *TRANSITION MOMENT: -0.76266680     *ENERGY(eV):   28.558568    
@ STATE NO:    9 *TRANSITION MOMENT: -1.04422330E-14 *ENERGY(eV):   28.928421    
@ STATE NO:   10 *TRANSITION MOMENT: -7.86971186E-03 *ENERGY(eV):   30.804890    
@ STATE NO:   11 *TRANSITION MOMENT:  2.35272559E-15 *ENERGY(eV):   33.059517    
@ STATE NO:   12 *TRANSITION MOMENT: -6.51515817E-15 *ENERGY(eV):   34.105721    
@ STATE NO:   13 *TRANSITION MOMENT: -6.16113297E-14 *ENERGY(eV):   35.625543    
@ STATE NO:   14 *TRANSITION MOMENT: -0.16200335     *ENERGY(eV):   35.756609    
@ STATE NO:   15 *TRANSITION MOMENT:  1.72831728E-15 *ENERGY(eV):   36.563627    

@ Singlet transition operator label: YDIPLEN 
@ STATE NO:    1 *TRANSITION MOMENT:  5.59626391E-15 *ENERGY(eV):   11.638569    
@ STATE NO:    2 *TRANSITION MOMENT:  7.12902648E-15 *ENERGY(eV):   14.317778    
@ STATE NO:    3 *TRANSITION MOMENT: -2.90927950E-14 *ENERGY(eV):   15.317284    
@ STATE NO:    4 *TRANSITION MOMENT:  0.38487032     *ENERGY(eV):   18.266221    
@ STATE NO:    5 *TRANSITION MOMENT:  -1.4040048     *ENERGY(eV):   22.004124    
@ STATE NO:    6 *TRANSITION MOMENT: -4.62683027E-14 *ENERGY(eV):   26.050349    
@ STATE NO:    7 *TRANSITION MOMENT:  1.25001601E-15 *ENERGY(eV):   28.065446    
@ STATE NO:    8 *TRANSITION MOMENT: -5.37395250E-14 *ENERGY(eV):   28.558568    
@ STATE NO:    9 *TRANSITION MOMENT: -3.61062786E-16 *ENERGY(eV):   28.928421    
@ STATE NO:   10 *TRANSITION MOMENT:  1.51572938E-15 *ENERGY(eV):   30.804890    
@ STATE NO:   11 *TRANSITION MOMENT:  4.61948447E-15 *ENERGY(eV):   33.059517    
@ STATE NO:   12 *TRANSITION MOMENT:  0.15924986     *ENERGY(eV):   34.105721    
@ STATE NO:   13 *TRANSITION MOMENT: -5.80576520E-02 *ENERGY(eV):   35.625543    
@ STATE NO:   14 *TRANSITION MOMENT:  2.36925757E-14 *ENERGY(eV):   35.756609    
@ STATE NO:   15 *TRANSITION MOMENT: -8.99043033E-16 *ENERGY(eV):   36.563627    

@ Singlet transition operator label: ZDIPLEN 
@ STATE NO:    1 *TRANSITION MOMENT:  0.10734498     *ENERGY(eV):   11.638569    
@ STATE NO:    2 *TRANSITION MOMENT:  1.79116670E-17 *ENERGY(eV):   14.317778    
@ STATE NO:    3 *TRANSITION MOMENT:  1.12102296E-15 *ENERGY(eV):   15.317284    
@ STATE NO:    4 *TRANSITION MOMENT:  2.70481918E-15 *ENERGY(eV):   18.266221    
@ STATE NO:    5 *TRANSITION MOMENT:  4.67301891E-16 *ENERGY(eV):   22.004124    
@ STATE NO:    6 *TRANSITION MOMENT: -2.22790012E-15 *ENERGY(eV):   26.050349    
@ STATE NO:    7 *TRANSITION MOMENT: -1.47219981E-02 *ENERGY(eV):   28.065446    
@ STATE NO:    8 *TRANSITION MOMENT: -1.46590231E-15 *ENERGY(eV):   28.558568    
@ STATE NO:    9 *TRANSITION MOMENT: -7.14548880E-16 *ENERGY(eV):   28.928421    
@ STATE NO:   10 *TRANSITION MOMENT: -4.43967816E-16 *ENERGY(eV):   30.804890    
@ STATE NO:   11 *TRANSITION MOMENT:  3.62025748E-16 *ENERGY(eV):   33.059517    
@ STATE NO:   12 *TRANSITION MOMENT: -4.01192119E-15 *ENERGY(eV):   34.105721    
@ STATE NO:   13 *TRANSITION MOMENT:  2.07553097E-15 *ENERGY(eV):   35.625543    
@ STATE NO:   14 *TRANSITION MOMENT:  4.42012689E-15 *ENERGY(eV):   35.756609    
@ STATE NO:   15 *TRANSITION MOMENT: -4.62170961E-15 *ENERGY(eV):   36.563627    


 **************************************************************************************
 *** @ Excit. operator sym 1 & ref. state sym 1 => excited state symmetry 1  ( A  ) ***
 **************************************************************************************



 @ Excited state no:    1 in symmetry 1  ( A  ) - singlet excitation
 -------------------------------------------------------------------

@ Excitation energy :  0.42770954     au
@                       11.638569     eV;   93871.392     cm-1;   1122.9512     kJ / mol

@ Total energy :       -74.585967     au

@ Operator label: XDIPLEN ; Transition moment :  2.65084172E-15 au
@ Oscillator strength (LENGTH)   :  2.00366573E-30  (X-polarization)

@ Operator label: YDIPLEN ; Transition moment :  5.59626391E-15 au
@ Oscillator strength (LENGTH)   :  8.93005329E-30  (Y-polarization)

@ Operator label: ZDIPLEN ; Transition moment :  0.10734498     au
@ Oscillator strength (LENGTH)   :  3.28564906E-03  (Z-polarization)
@ Total oscillator strength (LENGTH)   :  3.28564906E-03

 Eigenvector for state no.  1

      Index(conf)                         Z operator          Y operator
      ----------                      --------------      --------------
          16                            0.9674105379        0.0000000000
          79                           -0.1747076159        0.0000000000

      103 elements with absolute value ≤ 1.00D-01 are not printed.

 Printout of coefficients in interval  3.1623E-01 to  1.0000E+00
 ===============================================================

  Coefficient of CSF no.        16 is      0.96741054    9.67410538E-01
  Orbital          1   2   3   4   5
  Spin coupling    2   2   2   1  -1

 Printout of coefficients in interval  1.0000E-01 to  3.1623E-01
 ===============================================================

  Coefficient of CSF no.        79 is     -0.17470762   -1.74707616E-01
  Orbital          1   3   2   4   5   6
  Spin coupling    2   2   1  -1   1  -1

 Printout of coefficients in interval  1.0000E-01 to  1.0000E-01
 ===============================================================
   ( no coefficients )

 Norm of printed CI vector ..      0.96640590

 Magnitude of CI coefficients
 ============================
 ( Ranges are relative to norm of vector :  1.00E+00 )

  10- 1 to 10- 0         2    0.96640590E+00      0.9664058998
  10- 2 to 10- 1        12    0.33429431E-01      0.9998353311
  10- 3 to 10- 2         6    0.16466891E-03      1.0000000000
  Number of coefficients less than 10^-11 times norm is           85


 @ Excited state no:    2 in symmetry 1  ( A  ) - singlet excitation
 -------------------------------------------------------------------

@ Excitation energy :  0.52616868     au
@                       14.317778     eV;   115480.68     cm-1;   1381.4557     kJ / mol

@ Total energy :       -74.487508     au

@ Operator label: XDIPLEN ; Transition moment :  8.90127389E-16 au
@ Oscillator strength (LENGTH)   :  2.77931687E-31  (X-polarization)

@ Operator label: YDIPLEN ; Transition moment :  7.12902648E-15 au
@ Oscillator strength (LENGTH)   :  1.78276537E-29  (Y-polarization)

@ Operator label: ZDIPLEN ; Transition moment :  1.79116670E-17 au
@ Oscillator strength (LENGTH)   :  1.12539698E-34  (Z-polarization)
@ Total oscillator strength (LENGTH)   :  1.81056979E-29

 Eigenvector for state no.  2

      Index(conf)                         Z operator          Y operator
      ----------                      --------------      --------------
          17                           -0.9688359001        0.0000000000
          31                            0.1011488161        0.0000000000
          49                            0.1162179811        0.0000000000
          77                           -0.1263699792        0.0000000000

      101 elements with absolute value ≤ 1.00D-01 are not printed.

 Printout of coefficients in interval  3.1623E-01 to  1.0000E+00
 ===============================================================

  Coefficient of CSF no.        17 is     -0.96883590   -9.68835900E-01
  Orbital          1   2   3   4   6
  Spin coupling    2   2   2   1  -1

 Printout of coefficients in interval  1.0000E-01 to  3.1623E-01
 ===============================================================

  Coefficient of CSF no.        31 is      0.10114882    1.01148816E-01
  Orbital          1   3   5   2   4
  Spin coupling    2   2   2   1  -1

  Coefficient of CSF no.        49 is      0.11621798    1.16217981E-01
  Orbital          1   3   6   2   4
  Spin coupling    2   2   2   1  -1

  Coefficient of CSF no.        77 is     -0.12636998   -1.26369979E-01
  Orbital          1   2   3   4   5   6
  Spin coupling    2   2   1  -1   1  -1

 Norm of printed CI vector ..      0.97835008

 Magnitude of CI coefficients
 ============================
 ( Ranges are relative to norm of vector :  1.00E+00 )

  10- 1 to 10- 0         4    0.97835008E+00      0.9783500750
  10- 2 to 10- 1        12    0.21500119E-01      0.9998501945
  10- 3 to 10- 2         3    0.14916303E-03      0.9999993575
  10- 4 to 10- 3         1    0.64249315E-06      1.0000000000
  Number of coefficients less than 10^-11 times norm is           85


 @ Excited state no:    3 in symmetry 1  ( A  ) - singlet excitation
 -------------------------------------------------------------------

@ Excitation energy :  0.56289986     au
@                       15.317284     eV;   123542.24     cm-1;   1477.8934     kJ / mol

@ Total energy :       -74.450777     au

@ Operator label: XDIPLEN ; Transition moment :  0.40906956     au
@ Oscillator strength (LENGTH)   :  6.27963228E-02  (X-polarization)

@ Operator label: YDIPLEN ; Transition moment : -2.90927950E-14 au
@ Oscillator strength (LENGTH)   :  3.17622145E-28  (Y-polarization)

@ Operator label: ZDIPLEN ; Transition moment :  1.12102296E-15 au
@ Oscillator strength (LENGTH)   :  4.71594678E-31  (Z-polarization)
@ Total oscillator strength (LENGTH)   :  6.27963228E-02

 Eigenvector for state no.  3

      Index(conf)                         Z operator          Y operator
      ----------                      --------------      --------------
           3                            0.1066038237        0.0000000000
          19                           -0.9488719918        0.0000000000
          23                           -0.1850429639        0.0000000000
          83                            0.1350035440        0.0000000000

      101 elements with absolute value ≤ 1.00D-01 are not printed.

 Printout of coefficients in interval  3.1623E-01 to  1.0000E+00
 ===============================================================

  Coefficient of CSF no.        19 is     -0.94887199   -9.48871992E-01
  Orbital          1   2   4   3   5
  Spin coupling    2   2   2   1  -1

 Printout of coefficients in interval  1.0000E-01 to  3.1623E-01
 ===============================================================

  Coefficient of CSF no.         3 is      0.10660382    1.06603824E-01
  Orbital          1   2   4   5
  Spin coupling    2   2   2   2

  Coefficient of CSF no.        23 is     -0.18504296   -1.85042964E-01
  Orbital          1   3   4   2   6
  Spin coupling    2   2   2   1  -1

  Coefficient of CSF no.        83 is      0.13500354    1.35003544E-01
  Orbital          1   4   2   3   5   6
  Spin coupling    2   2   1  -1   1  -1

 Norm of printed CI vector ..      0.96418929

 Magnitude of CI coefficients
 ============================
 ( Ranges are relative to norm of vector :  1.00E+00 )

  10- 1 to 10- 0         4    0.96418929E+00      0.9641892874
  10- 2 to 10- 1        19    0.35451941E-01      0.9996412288
  10- 3 to 10- 2         9    0.35630091E-03      0.9999975298
  10- 4 to 10- 3         5    0.24702440E-05      1.0000000000
  Number of coefficients less than 10^-11 times norm is           68


 @ Excited state no:    4 in symmetry 1  ( A  ) - singlet excitation
 -------------------------------------------------------------------

@ Excitation energy :  0.67127130     au
@                       18.266221     eV;   147327.02     cm-1;   1762.4225     kJ / mol

@ Total energy :       -74.342405     au

@ Operator label: XDIPLEN ; Transition moment :  5.36815225E-15 au
@ Oscillator strength (LENGTH)   :  1.28960429E-29  (X-polarization)

@ Operator label: YDIPLEN ; Transition moment :  0.38487032     au
@ Oscillator strength (LENGTH)   :  6.62881131E-02  (Y-polarization)

@ Operator label: ZDIPLEN ; Transition moment :  2.70481918E-15 au
@ Oscillator strength (LENGTH)   :  3.27403483E-30  (Z-polarization)
@ Total oscillator strength (LENGTH)   :  6.62881131E-02

 Eigenvector for state no.  4

      Index(conf)                         Z operator          Y operator
      ----------                      --------------      --------------
          20                            0.8926750321        0.0000000000
          21                           -0.1620783027        0.0000000000
          22                            0.3747404059        0.0000000000
          37                           -0.1250682575        0.0000000000

      101 elements with absolute value ≤ 1.00D-01 are not printed.

 Printout of coefficients in interval  3.1623E-01 to  1.0000E+00
 ===============================================================

  Coefficient of CSF no.        20 is      0.89267503    8.92675032E-01
  Orbital          1   2   4   3   6
  Spin coupling    2   2   2   1  -1

  Coefficient of CSF no.        22 is      0.37474041    3.74740406E-01
  Orbital          1   3   4   2   5
  Spin coupling    2   2   2   1  -1

 Printout of coefficients in interval  1.0000E-01 to  3.1623E-01
 ===============================================================

  Coefficient of CSF no.        21 is     -0.16207830   -1.62078303E-01
  Orbital          1   2   4   5   6
  Spin coupling    2   2   2   1  -1

  Coefficient of CSF no.        37 is     -0.12506826   -1.25068258E-01
  Orbital          1   4   5   2   3
  Spin coupling    2   2   2   1  -1

 Norm of printed CI vector ..      0.97921053

 Magnitude of CI coefficients
 ============================
 ( Ranges are relative to norm of vector :  1.00E+00 )

  10- 1 to 10- 0         4    0.97921053E+00      0.9792105299
  10- 2 to 10- 1        15    0.20507949E-01      0.9997184791
  10- 3 to 10- 2         7    0.28063036E-03      0.9999991094
  10- 4 to 10- 3         2    0.89058537E-06      1.0000000000
  Number of coefficients less than 10^-11 times norm is           77


 @ Excited state no:    5 in symmetry 1  ( A  ) - singlet excitation
 -------------------------------------------------------------------

@ Excitation energy :  0.80863672     au
@                       22.004124     eV;   177475.24     cm-1;   2123.0754     kJ / mol

@ Total energy :       -74.205040     au

@ Operator label: XDIPLEN ; Transition moment :  2.12139119E-14 au
@ Oscillator strength (LENGTH)   :  2.42607219E-28  (X-polarization)

@ Operator label: YDIPLEN ; Transition moment :  -1.4040048     au
@ Oscillator strength (LENGTH)   :   1.0626723      (Y-polarization)

@ Operator label: ZDIPLEN ; Transition moment :  4.67301891E-16 au
@ Oscillator strength (LENGTH)   :  1.17721903E-31  (Z-polarization)
@ Total oscillator strength (LENGTH)   :   1.0626723    

 Eigenvector for state no.  5

      Index(conf)                         Z operator          Y operator
      ----------                      --------------      --------------
          20                           -0.3795119485        0.0000000000
          22                            0.9056890357        0.0000000000
          55                            0.1114872310        0.0000000000

      102 elements with absolute value ≤ 1.00D-01 are not printed.

 Printout of coefficients in interval  3.1623E-01 to  1.0000E+00
 ===============================================================

  Coefficient of CSF no.        20 is     -0.37951195   -3.79511948E-01
  Orbital          1   2   4   3   6
  Spin coupling    2   2   2   1  -1

  Coefficient of CSF no.        22 is      0.90568904    9.05689036E-01
  Orbital          1   3   4   2   5
  Spin coupling    2   2   2   1  -1

 Printout of coefficients in interval  1.0000E-01 to  3.1623E-01
 ===============================================================

  Coefficient of CSF no.        55 is      0.11148723    1.11487231E-01
  Orbital          1   4   6   2   3
  Spin coupling    2   2   2   1  -1

 Printout of coefficients in interval  1.0000E-01 to  1.0000E-01
 ===============================================================
   ( no coefficients )

 Norm of printed CI vector ..      0.97673135

 Magnitude of CI coefficients
 ============================
 ( Ranges are relative to norm of vector :  1.00E+00 )

  10- 1 to 10- 0         3    0.97673135E+00      0.9767313511
  10- 2 to 10- 1        17    0.23118198E-01      0.9998495495
  10- 3 to 10- 2         7    0.15019816E-03      0.9999997476
  10- 4 to 10- 3         1    0.25238549E-06      1.0000000000
  Number of coefficients less than 10^-11 times norm is           77


 @ Excited state no:    6 in symmetry 1  ( A  ) - singlet excitation
 -------------------------------------------------------------------

@ Excitation energy :  0.95733276     au
@                       26.050349     eV;   210110.25     cm-1;   2513.4768     kJ / mol

@ Total energy :       -74.056344     au

@ Operator label: XDIPLEN ; Transition moment : -0.28771077     au
@ Oscillator strength (LENGTH)   :  5.28303986E-02  (X-polarization)

@ Operator label: YDIPLEN ; Transition moment : -4.62683027E-14 au
@ Oscillator strength (LENGTH)   :  1.36627712E-27  (Y-polarization)

@ Operator label: ZDIPLEN ; Transition moment : -2.22790012E-15 au
@ Oscillator strength (LENGTH)   :  3.16783895E-30  (Z-polarization)
@ Total oscillator strength (LENGTH)   :  5.28303986E-02

 Eigenvector for state no.  6

      Index(conf)                         Z operator          Y operator
      ----------                      --------------      --------------
           2                            0.7185967492        0.0000000000
           3                           -0.1255591679        0.0000000000
           4                           -0.1206894985        0.0000000000
           6                           -0.4009600666        0.0000000000
          23                           -0.3860435125        0.0000000000
          25                            0.2084926145        0.0000000000
          32                            0.2474432743        0.0000000000
          47                            0.1294338707        0.0000000000

       97 elements with absolute value ≤ 1.00D-01 are not printed.

 Printout of coefficients in interval  3.1623E-01 to  1.0000E+00
 ===============================================================

  Coefficient of CSF no.         2 is      0.71859675    7.18596749E-01
  Orbital          1   2   3   5
  Spin coupling    2   2   2   2

  Coefficient of CSF no.         6 is     -0.40096007   -4.00960067E-01
  Orbital          1   2   3   6
  Spin coupling    2   2   2   2

  Coefficient of CSF no.        23 is     -0.38604351   -3.86043512E-01
  Orbital          1   3   4   2   6
  Spin coupling    2   2   2   1  -1

 Printout of coefficients in interval  1.0000E-01 to  3.1623E-01
 ===============================================================

  Coefficient of CSF no.         3 is     -0.12555917   -1.25559168E-01
  Orbital          1   2   4   5
  Spin coupling    2   2   2   2

  Coefficient of CSF no.         4 is     -0.12068950   -1.20689499E-01
  Orbital          1   3   4   5
  Spin coupling    2   2   2   2

  Coefficient of CSF no.        25 is      0.20849261    2.08492614E-01
  Orbital          2   3   4   1   5
  Spin coupling    2   2   2   1  -1

  Coefficient of CSF no.        32 is      0.24744327    2.47443274E-01
  Orbital          1   3   5   2   6
  Spin coupling    2   2   2   1  -1

  Coefficient of CSF no.        47 is      0.12943387    1.29433871E-01
  Orbital          1   2   6   3   5
  Spin coupling    2   2   2   1  -1

 Printout of coefficients in interval  1.0000E-01 to  1.0000E-01
 ===============================================================
   ( no coefficients )

 Norm of printed CI vector ..      0.97796139

 Magnitude of CI coefficients
 ============================
 ( Ranges are relative to norm of vector :  1.00E+00 )

  10- 1 to 10- 0         8    0.97796139E+00      0.9779613874
  10- 2 to 10- 1        16    0.21750755E-01      0.9997121425
  10- 3 to 10- 2        12    0.28784718E-03      0.9999999897
  10- 4 to 10- 3         1    0.10276386E-07      1.0000000000
  Number of coefficients less than 10^-11 times norm is           68


 @ Excited state no:    7 in symmetry 1  ( A  ) - singlet excitation
 -------------------------------------------------------------------

@ Excitation energy :   1.0313862     au
@                       28.065446     eV;   226363.10     cm-1;   2707.9040     kJ / mol

@ Total energy :       -73.982290     au

@ Operator label: XDIPLEN ; Transition moment :  7.20120677E-15 au
@ Oscillator strength (LENGTH)   :  3.56566564E-29  (X-polarization)

@ Operator label: YDIPLEN ; Transition moment :  1.25001601E-15 au
@ Oscillator strength (LENGTH)   :  1.07438813E-30  (Y-polarization)

@ Operator label: ZDIPLEN ; Transition moment : -1.47219981E-02 au
@ Oscillator strength (LENGTH)   :  1.49026523E-04  (Z-polarization)
@ Total oscillator strength (LENGTH)   :  1.49026523E-04

 Eigenvector for state no.  7

      Index(conf)                         Z operator          Y operator
      ----------                      --------------      --------------
          28                           -0.7789292769        0.0000000000
          34                            0.1471724561        0.0000000000
          46                            0.4539275751        0.0000000000
          48                           -0.1004289522        0.0000000000
          78                            0.3033365846        0.0000000000
          88                           -0.2004215616        0.0000000000

       99 elements with absolute value ≤ 1.00D-01 are not printed.

 Printout of coefficients in interval  3.1623E-01 to  1.0000E+00
 ===============================================================

  Coefficient of CSF no.        28 is     -0.77892928   -7.78929277E-01
  Orbital          1   2   5   3   4
  Spin coupling    2   2   2   1  -1

  Coefficient of CSF no.        46 is      0.45392758    4.53927575E-01
  Orbital          1   2   6   3   4
  Spin coupling    2   2   2   1  -1

 Printout of coefficients in interval  1.0000E-01 to  3.1623E-01
 ===============================================================

  Coefficient of CSF no.        34 is      0.14717246    1.47172456E-01
  Orbital          2   3   5   1   4
  Spin coupling    2   2   2   1  -1

  Coefficient of CSF no.        48 is     -0.10042895   -1.00428952E-01
  Orbital          1   2   6   4   5
  Spin coupling    2   2   2   1  -1

  Coefficient of CSF no.        78 is      0.30333658    3.03336585E-01
  Orbital          1   3   2   4   5   6
  Spin coupling    2   2   1   1  -1  -1

  Coefficient of CSF no.        88 is     -0.20042156   -2.00421562E-01
  Orbital          1   5   2   3   4   6
  Spin coupling    2   2   1   1  -1  -1

 Norm of printed CI vector ..      0.97670865

 Magnitude of CI coefficients
 ============================
 ( Ranges are relative to norm of vector :  1.00E+00 )

  10- 1 to 10- 0         6    0.97670865E+00      0.9767086540
  10- 2 to 10- 1        10    0.23260073E-01      0.9999687267
  10- 3 to 10- 2         4    0.31273319E-04      1.0000000000
  Number of coefficients less than 10^-11 times norm is           85


 @ Excited state no:    8 in symmetry 1  ( A  ) - singlet excitation
 -------------------------------------------------------------------

@ Excitation energy :   1.0495081     au
@                       28.558568     eV;   230340.40     cm-1;   2755.4830     kJ / mol

@ Total energy :       -73.964169     au

@ Operator label: XDIPLEN ; Transition moment : -0.76266680     au
@ Oscillator strength (LENGTH)   :  0.40697170      (X-polarization)

@ Operator label: YDIPLEN ; Transition moment : -5.37395250E-14 au
@ Oscillator strength (LENGTH)   :  2.02060850E-27  (Y-polarization)

@ Operator label: ZDIPLEN ; Transition moment : -1.46590231E-15 au
@ Oscillator strength (LENGTH)   :  1.50350399E-30  (Z-polarization)
@ Total oscillator strength (LENGTH)   :  0.40697170    

 Eigenvector for state no.  8

      Index(conf)                         Z operator          Y operator
      ----------                      --------------      --------------
           2                           -0.3784399817        0.0000000000
           4                           -0.1850324930        0.0000000000
           6                            0.1733284552        0.0000000000
          19                            0.1563948794        0.0000000000
          23                           -0.8355651192        0.0000000000
          25                            0.1018663486        0.0000000000

       99 elements with absolute value ≤ 1.00D-01 are not printed.

 Printout of coefficients in interval  3.1623E-01 to  1.0000E+00
 ===============================================================

  Coefficient of CSF no.         2 is     -0.37843998   -3.78439982E-01
  Orbital          1   2   3   5
  Spin coupling    2   2   2   2

  Coefficient of CSF no.        23 is     -0.83556512   -8.35565119E-01
  Orbital          1   3   4   2   6
  Spin coupling    2   2   2   1  -1

 Printout of coefficients in interval  1.0000E-01 to  3.1623E-01
 ===============================================================

  Coefficient of CSF no.         4 is     -0.18503249   -1.85032493E-01
  Orbital          1   3   4   5
  Spin coupling    2   2   2   2

  Coefficient of CSF no.         6 is      0.17332846    1.73328455E-01
  Orbital          1   2   3   6
  Spin coupling    2   2   2   2

  Coefficient of CSF no.        19 is      0.15639488    1.56394879E-01
  Orbital          1   2   4   3   5
  Spin coupling    2   2   2   1  -1

  Coefficient of CSF no.        25 is      0.10186635    1.01866349E-01
  Orbital          2   3   4   1   5
  Spin coupling    2   2   2   1  -1

 Norm of printed CI vector ..      0.94050178

 Magnitude of CI coefficients
 ============================
 ( Ranges are relative to norm of vector :  1.00E+00 )

  10- 1 to 10- 0         6    0.94050178E+00      0.9405017762
  10- 2 to 10- 1        24    0.59331020E-01      0.9998327959
  10- 3 to 10- 2         6    0.16708661E-03      0.9999998825
  10- 4 to 10- 3         1    0.11749379E-06      1.0000000000
  Number of coefficients less than 10^-11 times norm is           68


[...]
  Orbital          3   4   5   2   6
  Spin coupling    2   2   2   1  -1

  Coefficient of CSF no.        62 is     -0.11980501   -1.19805008E-01
  Orbital          3   4   6   1   5
  Spin coupling    2   2   2   1  -1

  Coefficient of CSF no.        67 is      0.11125040    1.11250405E-01
  Orbital          2   5   6   1   3
  Spin coupling    2   2   2   1  -1

  Coefficient of CSF no.        94 is      0.25196430    2.51964301E-01
  Orbital          4   5   1   2   3   6
  Spin coupling    2   2   1   1  -1  -1

  Coefficient of CSF no.        95 is      0.11083716    1.10837157E-01
  Orbital          4   5   1   2   3   6
  Spin coupling    2   2   1  -1   1  -1

 Norm of printed CI vector ..      0.96713910

 Magnitude of CI coefficients
 ============================
 ( Ranges are relative to norm of vector :  1.00E+00 )

  10- 1 to 10- 0        10    0.96713910E+00      0.9671391040
  10- 2 to 10- 1        16    0.32525651E-01      0.9996647548
  10- 3 to 10- 2         9    0.33495855E-03      0.9999997133
  10- 4 to 10- 3         2    0.28666739E-06      1.0000000000
  Number of coefficients less than 10^-11 times norm is           68


 @ Excited state no:   99 in symmetry 1  ( A  ) - singlet excitation
 -------------------------------------------------------------------

@ Excitation energy :   4.2871221     au
@                       116.65853     eV;   940914.53     cm-1;   11255.837     kJ / mol

@ Total energy :       -70.726555     au

@ Operator label: XDIPLEN ; Transition moment :  1.34106200E-05 au
@ Oscillator strength (LENGTH)   :  5.14010876E-10  (X-polarization)

@ Operator label: YDIPLEN ; Transition moment : -1.68779717E-16 au
@ Oscillator strength (LENGTH)   :  8.14170013E-32  (Y-polarization)

@ Operator label: ZDIPLEN ; Transition moment : -5.59863746E-17 au
@ Oscillator strength (LENGTH)   :  8.95858225E-33  (Z-polarization)
@ Total oscillator strength (LENGTH)   :  5.14010876E-10

 Eigenvector for state no. 99

      Index(conf)                         Z operator          Y operator
      ----------                      --------------      --------------
          10                            0.1207846660        0.0000000000
          12                            0.8495261373        0.0000000000
          14                           -0.3499929290        0.0000000000
          15                           -0.1240491760        0.0000000000
          67                           -0.3079726187        0.0000000000

      100 elements with absolute value ≤ 1.00D-01 are not printed.

 Printout of coefficients in interval  3.1623E-01 to  1.0000E+00
 ===============================================================

  Coefficient of CSF no.        12 is      0.84952614    8.49526137E-01
  Orbital          2   3   5   6
  Spin coupling    2   2   2   2

  Coefficient of CSF no.        14 is     -0.34999293   -3.49992929E-01
  Orbital          2   4   5   6
  Spin coupling    2   2   2   2

 Printout of coefficients in interval  1.0000E-01 to  3.1623E-01
 ===============================================================

  Coefficient of CSF no.        10 is      0.12078467    1.20784666E-01
  Orbital          1   2   5   6
  Spin coupling    2   2   2   2

  Coefficient of CSF no.        15 is     -0.12404918   -1.24049176E-01
  Orbital          3   4   5   6
  Spin coupling    2   2   2   2

  Coefficient of CSF no.        67 is     -0.30797262   -3.07972619E-01
  Orbital          2   5   6   1   3
  Spin coupling    2   2   2   1  -1

 Norm of printed CI vector ..      0.96901398

 Magnitude of CI coefficients
 ============================
 ( Ranges are relative to norm of vector :  1.00E+00 )

  10- 1 to 10- 0         5    0.96901398E+00      0.9690139759
  10- 2 to 10- 1        18    0.30632781E-01      0.9996467572
  10- 3 to 10- 2        13    0.35318360E-03      0.9999999408
  10- 4 to 10- 3         1    0.59172777E-07      1.0000000000
  Number of coefficients less than 10^-11 times norm is           68


 @ Excited state no:  100 in symmetry 1  ( A  ) - singlet excitation
 -------------------------------------------------------------------

@ Excitation energy :   4.3087311     au
@                       117.24654     eV;   945657.15     cm-1;   11312.572     kJ / mol

@ Total energy :       -70.704946     au

@ Operator label: XDIPLEN ; Transition moment : -5.62320330E-17 au
@ Oscillator strength (LENGTH)   :  9.08292438E-33  (X-polarization)

@ Operator label: YDIPLEN ; Transition moment :  2.29269424E-15 au
@ Oscillator strength (LENGTH)   :  1.50990773E-29  (Y-polarization)

@ Operator label: ZDIPLEN ; Transition moment :  1.79164840E-04 au
@ Oscillator strength (LENGTH)   :  9.22069591E-08  (Z-polarization)
@ Total oscillator strength (LENGTH)   :  9.22069591E-08

 Eigenvector for state no.100

      Index(conf)                         Z operator          Y operator
      ----------                      --------------      --------------
          54                           -0.1448859227        0.0000000000
          66                            0.1145595371        0.0000000000
          68                           -0.2114018953        0.0000000000
          69                            0.9420397029        0.0000000000
          99                            0.1416845827        0.0000000000

      100 elements with absolute value ≤ 1.00D-01 are not printed.

 Printout of coefficients in interval  3.1623E-01 to  1.0000E+00
 ===============================================================

  Coefficient of CSF no.        69 is      0.94203970    9.42039703E-01
  Orbital          2   5   6   3   4
  Spin coupling    2   2   2   1  -1

 Printout of coefficients in interval  1.0000E-01 to  3.1623E-01
 ===============================================================

  Coefficient of CSF no.        54 is     -0.14488592   -1.44885923E-01
  Orbital          2   3   6   4   5
  Spin coupling    2   2   2   1  -1

  Coefficient of CSF no.        66 is      0.11455954    1.14559537E-01
  Orbital          1   5   6   3   4
  Spin coupling    2   2   2   1  -1

  Coefficient of CSF no.        68 is     -0.21140190   -2.11401895E-01
  Orbital          2   5   6   1   4
  Spin coupling    2   2   2   1  -1

  Coefficient of CSF no.        99 is      0.14168458    1.41684583E-01
  Orbital          2   6   1   3   4   5
  Spin coupling    2   2   1  -1   1  -1

 Norm of printed CI vector ..      0.98631990

 Magnitude of CI coefficients
 ============================
 ( Ranges are relative to norm of vector :  1.00E+00 )

  10- 1 to 10- 0         5    0.98631990E+00      0.9863199024
  10- 2 to 10- 1        13    0.13533728E-01      0.9998536306
  10- 3 to 10- 2         2    0.14636943E-03      1.0000000000
  Number of coefficients less than 10^-11 times norm is           85


 @ Excited state no:  101 in symmetry 1  ( A  ) - singlet excitation
 -------------------------------------------------------------------

@ Excitation energy :   4.3630006     au
@                       118.72329     eV;   957567.95     cm-1;   11455.056     kJ / mol

@ Total energy :       -70.650676     au

@ Operator label: XDIPLEN ; Transition moment :  4.30672394E-17 au
@ Oscillator strength (LENGTH)   :  5.39495821E-33  (X-polarization)

@ Operator label: YDIPLEN ; Transition moment : -9.55148924E-17 au
@ Oscillator strength (LENGTH)   :  2.65360452E-32  (Y-polarization)

@ Operator label: ZDIPLEN ; Transition moment :  1.58499545E-17 au
@ Oscillator strength (LENGTH)   :  7.30718421E-34  (Z-polarization)
@ Total oscillator strength (LENGTH)   :  3.26617218E-32

 Eigenvector for state no.101

      Index(conf)                         Z operator          Y operator
      ----------                      --------------      --------------
          36                            0.2334260453        0.0000000000
          65                            0.1414146540        0.0000000000
          72                            0.9077733339        0.0000000000
          91                           -0.1172535101        0.0000000000
         101                            0.1012442354        0.0000000000
         104                            0.1781198221        0.0000000000
         105                            0.1886941972        0.0000000000

       98 elements with absolute value ≤ 1.00D-01 are not printed.

 Printout of coefficients in interval  3.1623E-01 to  1.0000E+00
 ===============================================================

  Coefficient of CSF no.        72 is      0.90777333    9.07773334E-01
  Orbital          3   5   6   2   4
  Spin coupling    2   2   2   1  -1

 Printout of coefficients in interval  1.0000E-01 to  3.1623E-01
 ===============================================================

  Coefficient of CSF no.        36 is      0.23342605    2.33426045E-01
  Orbital          2   3   5   4   6
  Spin coupling    2   2   2   1  -1

  Coefficient of CSF no.        65 is      0.14141465    1.41414654E-01
  Orbital          1   5   6   2   4
  Spin coupling    2   2   2   1  -1

  Coefficient of CSF no.        91 is     -0.11725351   -1.17253510E-01
  Orbital          2   5   1   3   4   6
  Spin coupling    2   2   1  -1   1  -1

  Coefficient of CSF no.       101 is      0.10124424    1.01244235E-01
  Orbital          3   6   1   2   4   5
  Spin coupling    2   2   1  -1   1  -1

  Coefficient of CSF no.       104 is      0.17811982    1.78119822E-01
  Orbital          5   6   1   2   3   4
  Spin coupling    2   2   1   1  -1  -1

  Coefficient of CSF no.       105 is      0.18869420    1.88694197E-01
  Orbital          5   6   1   2   3   4
  Spin coupling    2   2   1  -1   1  -1

 Norm of printed CI vector ..      0.98986920

 Magnitude of CI coefficients
 ============================
 ( Ranges are relative to norm of vector :  1.00E+00 )

  10- 1 to 10- 0         7    0.98986920E+00      0.9898692006
  10- 2 to 10- 1         8    0.99218482E-02      0.9997910488
  10- 3 to 10- 2         5    0.20895125E-03      1.0000000000
  Number of coefficients less than 10^-11 times norm is           85


 @ Excited state no:  102 in symmetry 1  ( A  ) - singlet excitation
 -------------------------------------------------------------------

@ Excitation energy :   4.4201463     au
@                       120.27830     eV;   970109.97     cm-1;   11605.092     kJ / mol

@ Total energy :       -70.593530     au

@ Operator label: XDIPLEN ; Transition moment : -4.39368023E-05 au
@ Oscillator strength (LENGTH)   :  5.68855914E-09  (X-polarization)

@ Operator label: YDIPLEN ; Transition moment :  1.07363634E-16 au
@ Oscillator strength (LENGTH)   :  3.39672032E-32  (Y-polarization)

@ Operator label: ZDIPLEN ; Transition moment :  1.65931632E-18 au
@ Oscillator strength (LENGTH)   :  8.11341622E-36  (Z-polarization)
@ Total oscillator strength (LENGTH)   :  5.68855914E-09

 Eigenvector for state no.102

      Index(conf)                         Z operator          Y operator
      ----------                      --------------      --------------
          10                            0.1234091927        0.0000000000
          12                            0.2445390001        0.0000000000
          14                            0.7873179116        0.0000000000
          15                           -0.4637862077        0.0000000000
          59                           -0.1193694169        0.0000000000
          60                            0.1958066804        0.0000000000

       99 elements with absolute value ≤ 1.00D-01 are not printed.

 Printout of coefficients in interval  3.1623E-01 to  1.0000E+00
 ===============================================================

  Coefficient of CSF no.        14 is      0.78731791    7.87317912E-01
  Orbital          2   4   5   6
  Spin coupling    2   2   2   2

  Coefficient of CSF no.        15 is     -0.46378621   -4.63786208E-01
  Orbital          3   4   5   6
  Spin coupling    2   2   2   2

 Printout of coefficients in interval  1.0000E-01 to  3.1623E-01
 ===============================================================

  Coefficient of CSF no.        10 is      0.12340919    1.23409193E-01
  Orbital          1   2   5   6
  Spin coupling    2   2   2   2

  Coefficient of CSF no.        12 is      0.24453900    2.44539000E-01
  Orbital          2   3   5   6
  Spin coupling    2   2   2   2

  Coefficient of CSF no.        59 is     -0.11936942   -1.19369417E-01
  Orbital          2   4   6   1   5
  Spin coupling    2   2   2   1  -1

  Coefficient of CSF no.        60 is      0.19580668    1.95806680E-01
  Orbital          2   4   6   3   5
  Spin coupling    2   2   2   1  -1

 Norm of printed CI vector ..      0.96258561

 Magnitude of CI coefficients
 ============================
 ( Ranges are relative to norm of vector :  1.00E+00 )

  10- 1 to 10- 0         6    0.96258561E+00      0.9625856055
  10- 2 to 10- 1        22    0.37184516E-01      0.9997701210
  10- 3 to 10- 2         8    0.22935179E-03      0.9999994728
  10- 4 to 10- 3         1    0.52720360E-06      1.0000000000
  Number of coefficients less than 10^-11 times norm is           68


 @ Excited state no:  103 in symmetry 1  ( A  ) - singlet excitation
 -------------------------------------------------------------------

@ Excitation energy :   4.4487847     au
@                       121.05759     eV;   976395.37     cm-1;   11680.282     kJ / mol

@ Total energy :       -70.564892     au

@ Operator label: XDIPLEN ; Transition moment :  1.00676428E-15 au
@ Oscillator strength (LENGTH)   :  3.00611593E-30  (X-polarization)

@ Operator label: YDIPLEN ; Transition moment : -1.16801112E-04 au
@ Oscillator strength (LENGTH)   :  4.04616960E-08  (Y-polarization)

@ Operator label: ZDIPLEN ; Transition moment :  3.17297140E-17 au
@ Oscillator strength (LENGTH)   :  2.98594940E-33  (Z-polarization)
@ Total oscillator strength (LENGTH)   :  4.04616960E-08

 Eigenvector for state no.103

      Index(conf)                         Z operator          Y operator
      ----------                      --------------      --------------
          42                            0.1648728731        0.0000000000
          64                            0.1003166074        0.0000000000
          73                           -0.2853207112        0.0000000000
          75                            0.9202321999        0.0000000000

      101 elements with absolute value ≤ 1.00D-01 are not printed.

 Printout of coefficients in interval  3.1623E-01 to  1.0000E+00
 ===============================================================

  Coefficient of CSF no.        75 is      0.92023220    9.20232200E-01
  Orbital          4   5   6   2   3
  Spin coupling    2   2   2   1  -1

 Printout of coefficients in interval  1.0000E-01 to  3.1623E-01
 ===============================================================

  Coefficient of CSF no.        42 is      0.16487287    1.64872873E-01
  Orbital          2   4   5   3   6
  Spin coupling    2   2   2   1  -1

  Coefficient of CSF no.        64 is      0.10031661    1.00316607E-01
  Orbital          1   5   6   2   3
  Spin coupling    2   2   2   1  -1

  Coefficient of CSF no.        73 is     -0.28532071   -2.85320711E-01
  Orbital          4   5   6   1   2
  Spin coupling    2   2   2   1  -1

 Norm of printed CI vector ..      0.96548170

 Magnitude of CI coefficients
 ============================
 ( Ranges are relative to norm of vector :  1.00E+00 )

  10- 1 to 10- 0         4    0.96548170E+00      0.9654816960
  10- 2 to 10- 1        17    0.34316830E-01      0.9997985260
  10- 3 to 10- 2         6    0.20112349E-03      0.9999996495
  10- 4 to 10- 3         1    0.35051744E-06      1.0000000000
  Number of coefficients less than 10^-11 times norm is           77


 @ Excited state no:  104 in symmetry 1  ( A  ) - singlet excitation
 -------------------------------------------------------------------

@ Excitation energy :   4.6105260     au
@                       125.45879     eV;   1011893.5     cm-1;   12104.934     kJ / mol

@ Total energy :       -70.403151     au

@ Operator label: XDIPLEN ; Transition moment :  9.11154478E-05 au
@ Oscillator strength (LENGTH)   :  2.55178007E-08  (X-polarization)

@ Operator label: YDIPLEN ; Transition moment :  1.52330732E-17 au
@ Oscillator strength (LENGTH)   :  7.13237667E-34  (Y-polarization)

@ Operator label: ZDIPLEN ; Transition moment :  1.47032012E-17 au
@ Oscillator strength (LENGTH)   :  6.64481687E-34  (Z-polarization)
@ Total oscillator strength (LENGTH)   :  2.55178007E-08

 Eigenvector for state no.104

      Index(conf)                         Z operator          Y operator
      ----------                      --------------      --------------
           5                           -0.1137116567        0.0000000000
          11                           -0.1127044033        0.0000000000
          12                           -0.2391371150        0.0000000000
          13                           -0.1536516236        0.0000000000
          14                           -0.3871441475        0.0000000000
          15                           -0.7873179711        0.0000000000
          45                            0.2059667885        0.0000000000
          74                            0.1747681604        0.0000000000

       97 elements with absolute value ≤ 1.00D-01 are not printed.

 Printout of coefficients in interval  3.1623E-01 to  1.0000E+00
 ===============================================================

  Coefficient of CSF no.        14 is     -0.38714415   -3.87144148E-01
  Orbital          2   4   5   6
  Spin coupling    2   2   2   2

  Coefficient of CSF no.        15 is     -0.78731797   -7.87317971E-01
  Orbital          3   4   5   6
  Spin coupling    2   2   2   2

 Printout of coefficients in interval  1.0000E-01 to  3.1623E-01
 ===============================================================

  Coefficient of CSF no.         5 is     -0.11371166   -1.13711657E-01
  Orbital          2   3   4   5
  Spin coupling    2   2   2   2

  Coefficient of CSF no.        11 is     -0.11270440   -1.12704403E-01
  Orbital          1   3   5   6
  Spin coupling    2   2   2   2

  Coefficient of CSF no.        12 is     -0.23913712   -2.39137115E-01
  Orbital          2   3   5   6
  Spin coupling    2   2   2   2

  Coefficient of CSF no.        13 is     -0.15365162   -1.53651624E-01
  Orbital          1   4   5   6
  Spin coupling    2   2   2   2

  Coefficient of CSF no.        45 is      0.20596679    2.05966788E-01
  Orbital          3   4   5   2   6
  Spin coupling    2   2   2   1  -1

  Coefficient of CSF no.        74 is      0.17476816    1.74768160E-01
  Orbital          4   5   6   1   3
  Spin coupling    2   2   2   1  -1

 Norm of printed CI vector ..      0.94914441

 Magnitude of CI coefficients
 ============================
 ( Ranges are relative to norm of vector :  1.00E+00 )

  10- 1 to 10- 0         8    0.94914441E+00      0.9491444111
  10- 2 to 10- 1        25    0.50688855E-01      0.9998332661
  10- 3 to 10- 2         4    0.16673388E-03      1.0000000000
  Number of coefficients less than 10^-11 times norm is           68


 Time used in polarization propagator calculation is      0.12 CPU seconds for symmetry 1

  Total CPU  time used in RESPONSE:   0.15 seconds
  Total wall time used in RESPONSE:   0.35 seconds


                   .-------------------------------------------.
                   | End of Dynamic Property Section (RESPONS) |
                   `-------------------------------------------'

  Total CPU  time used in DALTON:   0.29 seconds
  Total wall time used in DALTON:   1.38 seconds

 NOTE:    1 warnings have been issued.
 Check output, result, and error files for "WARNING".

 
     Date and time (Linux)  : Tue Jul  7 15:31:15 2026
     Host name              : n-62-31-21                              
