

     ************************************************************************
     *************** Dalton - An Electronic Structure Program ***************
     ************************************************************************

    This is output from DALTON release Dalton2024.0-dev (2024)
         ( Web site: http://daltonprogram.org )

   ----------------------------------------------------------------------------

    NOTE:
     
    Dalton is an experimental code for the evaluation of molecular
    properties using (MC)SCF, DFT, CI, and CC wave functions.
    The authors accept no responsibility for the performance of
    the code or for the correctness of the results.
     
    The code (in whole or part) is provided under a licence and
    is not to be reproduced for further distribution without
    the written permission of the authors or their representatives.
     
    See the home page "http://daltonprogram.org" for further information.
     
    If results obtained with this code are published,
    the appropriate citations would be both of:
     
       K. Aidas, C. Angeli, K. L. Bak, V. Bakken,
       R. Bast, L. Boman, O. Christiansen, R. Cimiraglia,
       S. Coriani, P. Dahle, E. K. Dalskov, U. Ekstroem,
       T. Enevoldsen, J. J. Eriksen, P. Ettenhuber, B. Fernandez,
       L. Ferrighi, H. Fliegl, L. Frediani, K. Hald, A. Halkier,
       C. Haettig, H. Heiberg, T. Helgaker, A. C. Hennum,
       H. Hettema, E. Hjertenaes, S. Hoest, I.-M. Hoeyvik,
       M. F. Iozzi, B. Jansik, H. J. Aa. Jensen, D. Jonsson,
       P. Joergensen, J. Kauczor, S. Kirpekar,
       T. Kjaergaard, W. Klopper, S. Knecht, R. Kobayashi, H. Koch,
       J. Kongsted, A. Krapp, K. Kristensen, A. Ligabue,
       O. B. Lutnaes, J. I. Melo, K. V. Mikkelsen, R. H. Myhre,
       C. Neiss, C. B. Nielsen, P. Norman, J. Olsen,
       J. M. H. Olsen, A. Osted, M. J. Packer, F. Pawlowski,
       T. B. Pedersen, P. F. Provasi, S. Reine, Z. Rinkevicius,
       T. A. Ruden, K. Ruud, V. Rybkin, P. Salek, C. C. M. Samson,
       A. Sanchez de Meras, T. Saue, S. P. A. Sauer,
       B. Schimmelpfennig, K. Sneskov, A. H. Steindal,
       K. O. Sylvester-Hvid, P. R. Taylor, A. M. Teale,
       E. I. Tellgren, D. P. Tew, A. J. Thorvaldsen, L. Thoegersen,
       O. Vahtras, M. A. Watson, D. J. D. Wilson, M. Ziolkowski
       and H. Agren,
       "The Dalton quantum chemistry program system",
       WIREs Comput. Mol. Sci. 2014, 4:269-284 (doi: 10.1002/wcms.1172)
     
    and
     
       Dalton, a molecular electronic structure program,
       Release Dalton2024.0-dev (2024), see http://daltonprogram.org
   ----------------------------------------------------------------------------

    Authors in alphabetical order (Major contribution(s) in parenthesis):

  Kestutis Aidas,              Vilnius University,        Lithuania   (QM/MM)
  Celestino Angeli,            University of Ferrara,     Italy       (NEVPT2)
  Juan J. Aucar,               Northeast National UniversiArgentina   (LRESC, Relativistic Effects on EFG)
  Keld L. Bak,                 UNI-C,                     Denmark     (AOSOPPA, non-adiabatic coupling, magnetic properties)
  Vebjoern Bakken,             University of Oslo,        Norway      (DALTON; geometry optimizer, symmetry detection)
  Radovan Bast,                UiT The Arctic U. of NorwayNorway      (DALTON installation and execution frameworks)
  Pablo Baudin,                University of Valencia,    Spain       (Cholesky excitation energies)
  Linus Boman,                 NTNU,                      Norway      (Cholesky decomposition and subsystems)
  Bruno N. Cabral Tenorio,     Technical Univ. of Denmark,Denmark     (Lanczos-based CC methods)
  Ove Christiansen,            Aarhus University,         Denmark     (CC module)
  Renzo Cimiraglia,            University of Ferrara,     Italy       (NEVPT2)
  Sonia Coriani,               Technical Univ. of Denmark,Denmark     (CC and RESPONS modules)
  Janusz Cukras,               University of Warsaw,      Poland      (MChD in RESPONS)
  Paal Dahle,                  University of Oslo,        Norway      (Parallelization)
  Erik K. Dalskov,             UNI-C,                     Denmark     (SOPPA)
  Thomas Enevoldsen,           Univ. of Southern Denmark, Denmark     (SOPPA)
  Janus J. Eriksen,            Aarhus University,         Denmark     (Polarizable embedding, TDA)
  Rasmus Faber,                Technical Univ. of Denmark,Denmark     (Vib.avg. NMR w. SOPPA, parallel AO-SOPPA, CVS-CC and EOMCC)
  Tobias Fahleson,             KTH Stockholm,             Sweden      (Damped cubic response)
  Berta Fernandez,             U. of Santiago de CompostelSpain       (Doublet spin, ESR in RESPONS)
  Lara Ferrighi,               Aarhus University,         Denmark     (PCM Cubic response)
  Heike Fliegl,                University of Oslo,        Norway      (CCSD(R12))
  Luca Frediani,               UiT The Arctic U. of NorwayNorway      (PCM)
  Emmanuel Fromager,           Univ. Strasbourg,          France      (MC-srDFT)
  Bin Gao,                     UiT The Arctic U. of NorwayNorway      (Gen1Int library)
  Andre S. P. Gomes,           CNRS/Universite de Lille,  France      (Frozen density embedding)
  Christof Haettig,            Ruhr-University Bochum,    Germany     (CC module)
  Kasper Hald,                 Aarhus University,         Denmark     (CC module)
  Asger Halkier,               Aarhus University,         Denmark     (CC module)
  Frederik Beyer Hansen,       University of Copenhagen,  Denmark     (Parallel AO-SOPPA)
  Erik D. Hedegaard,           Univ. of Southern Denmark, Denmark     (Polarizable embedding, QM/MM, and MC-srDFT)
  Hanne Heiberg,               University of Oslo,        Norway      (Geometry analysis, selected one-electron integrals)
  Trygve Helgaker,             University of Oslo,        Norway      (DALTON; ABACUS, ERI, DFT modules, London, and much more)
  Alf Christian Hennum,        University of Oslo,        Norway      (Parity violation)
  Hinne Hettema,               University of Auckland,    New Zealand (Quadratic response in RESPONS; SIRIUS supersymmetry)
  Andreas E. Hillers-Bendtsen, University of Copenhagen,  Denmark     (MP3)
  Eirik Hjertenaes,            NTNU,                      Norway      (Cholesky decomposition)
  Nicolai Machholdt Hoeyer,    Aarhus University,         Denmark     (MP3)
  Pi A. B. Haase,              University of Copenhagen,  Denmark     (Triplet AO-SOPPA)
  Maria Francesca Iozzi,       University of Oslo,        Norway      (RPA)
  Christoph Jacob,             TU Braunschweig            Germany     (Frozen density embedding)
  Brano Jansik,                Technical Univ. of Ostrava Czech Rep.  (DFT cubic response)
  Hans Joergen Aa. Jensen,     Univ. of Southern Denmark, Denmark     (DALTON; SIRIUS, RESPONS, ABACUS, MC-srDFT, and much more)
  Dan Jonsson,                 UiT The Arctic U. of NorwayNorway      (Cubic response in RESPONS module)
  Poul Joergensen,             Aarhus University,         Denmark     (RESPONS, ABACUS, and CC modules)
  Maciej Kaminski,             University of Warsaw,      Poland      (CPPh in RESPONS)
  Joanna Kauczor,              Linkoeping University,     Sweden      (Complex polarization propagator (CPP) module)
  Sheela Kirpekar,             Univ. of Southern Denmark, Denmark     (Mass-velocity & Darwin integrals)
  Frederik Oersted Kjeldal,    Technical Univ. of Denmark,Denmark     (MP3)
  Erik Kjellgren,              Univ. of Southern Denmark, Denmark     (MC-srDFT)
  Wim Klopper,                 KIT Karlsruhe,             Germany     (R12 code in CC, SIRIUS, and ABACUS modules)
  Stefan Knecht,               ETH Zurich,                Switzerland (Parallel CI and MCSCF, MC-srDFT)
  Rika Kobayashi,              Australian National Univ., Australia   (DIIS in CC, London in MCSCF)
  Henrik Koch,                 NTNU,                      Norway      (CC module, Cholesky decomposition)
  Jacob Kongsted,              Univ. of Southern Denmark, Denmark     (Polarizable embedding, polarizable density embedding, QM/MM)
  Andrea Ligabue,              University of Modena,      Italy       (CTOCD, AOSOPPA)
  Nanna H. List,               Univ. of Southern Denmark, Denmark     (Polarizable embedding)
  Ola B. Lutnaes,              University of Oslo,        Norway      (DFT Hessian)
  Juan I. Melo,                University of Buenos Aires,Argentina   (LRESC, Relativistic Effects on NMR Shieldings)
  Kurt V. Mikkelsen,           University of Copenhagen,  Denmark     (MC-SCRF, QM/MM, and MP3)
  Rolf H. Myhre,               NTNU,                      Norway      (Subsystems and CC3)
  Christian Neiss,             Univ. Erlangen-Nuernberg,  Germany     (CCSD(R12))
  Christian B. Nielsen,        University of Copenhagen,  Denmark     (QM/MM)
  Patrick Norman,              KTH Stockholm,             Sweden      (Cubic response and complex frequency response in RESPONS)
  Jeppe Olsen,                 Aarhus University,         Denmark     (SIRIUS CI/density modules)
  Jogvan Magnus H. Olsen,      Aarhus University,         Denmark     (Polarizable embedding and polarizable density embedding)
  Anders Osted,                Copenhagen University,     Denmark     (QM/MM)
  Martin J. Packer,            University of Sheffield,   UK          (SOPPA)
  Filip Pawlowski,             Kazimierz Wielki UniversityPoland      (CC3)
  Morten N. Pedersen,          Univ. of Southern Denmark, Denmark     (Polarizable embedding)
  Thomas B. Pedersen,          University of Oslo,        Norway      (Cholesky decomposition)
  Patricio F. Provasi,         University of Northeastern,Argentina   (Analysis of coupling constants in localized orbitals)
  Peter Reinholdt,             Univ. of Southern Denmark, Denmark     (Polarizable embedding and polarizable density embedding)
  Zilvinas Rinkevicius,        KTH Stockholm,             Sweden      (open-shell DFT, ESR)
  Elias Rudberg,               KTH Stockholm,             Sweden      (DFT grid and basis info)
  Torgeir A. Ruden,            University of Oslo,        Norway      (Numerical derivatives in ABACUS)
  Kenneth Ruud,                UiT The Arctic U. of NorwayNorway      (DALTON; ABACUS magnetic properties and much more)
  Pawel Salek,                 KTH Stockholm,             Sweden      (DALTON; DFT code)
  Claire C. M. Samson,         University of Karlsruhe    Germany     (Boys localization, r12 integrals in ERI)
  Alfredo Sanchez de Meras,    University of Valencia,    Spain       (CC module, Cholesky decomposition)
  Trond Saue,                  Paul Sabatier University,  France      (direct Fock matrix construction)
  Stephan P. A. Sauer,         University of Copenhagen,  Denmark     (SOPPA(CCSD), SOPPA prop., AOSOPPA, vibrational g-factors)
  Bernd Schimmelpfennig,       Forschungszentrum KarlsruheGermany     (AMFI module)
  Anna K. Schnack-Petersen,    University of Copenhagen,  Denmark     (RPA(D) and HRPA(D) properties in AOSOPPA)
  Kristian Sneskov,            Aarhus University,         Denmark     (Polarizable embedding, QM/MM)
  Arnfinn H. Steindal,         UiT The Arctic U. of NorwayNorway      (parallel QM/MM, polarizable embedding)
  Casper Steinmann,            Aalborg University,        Denmark     (QFIT, polarizable embedding)
  K. O. Sylvester-Hvid,        University of Copenhagen,  Denmark     (MC-SCRF)
  Peter R. Taylor,             VLSCI/Univ. of Melbourne,  Australia   (Symmetry handling ABACUS, integral transformation)
  Andrew M. Teale,             University of Nottingham,  England     (DFT-AC, DFT-D)
  David P. Tew,                University of Bristol,     England     (CCSD(R12))
  Julien Toulouse,             Sorbonne Univ.,            France      (MC-srDFT)
  Olav Vahtras,                KTH Stockholm,             Sweden      (Triplet response, spin-orbit, ESR, TDDFT, open-shell DFT)
  Lucas Visscher,              Vrije Universiteit AmsterdaNetherlands (Frozen density embedding)
  David J. Wilson,             La Trobe University,       Australia   (DFT Hessian and DFT magnetizabilities)
  Luna Zamok,                  University of Copenhagen,  Denmark     (Block Lanczos RPA solver in SOPPA module)
  Hans Agren,                  KTH Stockholm,             Sweden      (SIRIUS module, RESPONS, MC-SCRF solvation)
 --------------------------------------------------------------------------------

     Date and time (Linux)  : Tue Jul  7 10:35:01 2026
     Host name              : n-62-31-21                              

 * Work memory size             :   512000000 =  3.815 gigabytes.

 * Directories for basis set searches:
   1) /work3/jochar/DaltonTests
   2) /zhome/d7/7/119775/My_Codes/Dalton_Release/dalton/build_omp_nov24/basis


Compilation information
-----------------------

 Who compiled             | soco
 Host                     | hpclogin1
 System                   | Linux-6.1.112-1.el9.elrepo.x86_64
 CMake generator          | Unix Makefiles
 Processor                | x86_64
 64-bit integers          | OFF
 MPI                      | OFF
 Fortran compiler         | /appl/intel/2023.2.0.49397/compiler/2023.2.0/linux
                          | /bin/intel64/ifort
 Fortran compiler version | ifort (IFORT) 2021.10.0 20230609
 C compiler               | /appl/intel/2023.2.0.49397/compiler/2023.2.0/linux
                          | /bin/intel64/icc
 C compiler version       | icc (ICC) 2021.10.0 20230609
 C++ compiler             | /appl/intel/2023.2.0.49397/compiler/2023.2.0/linux
                          | /bin/intel64/icpc
 C++ compiler version     | icpc (ICC) 2021.10.0 20230609
 Static linking           | OFF
 Last Git revision        | a531ac4fbf115ebda1c90140ce3fd6aa236a2033
 Git branch               | master
 Configuration time       | 2024-11-14 11:23:30.470039

 * Sequential calculation.


   Content of the .dal input file
 ----------------------------------

**DALTON INPUT
.RUN WAVE FUNCTIONS   !tipo di calcolo
.RUN RESPONSE
**INTEGRALS
.DIPLEN               !integrali dell'operatore dipolo elettrico
**WAVE FUNCTION
.HF
.CI
!*PRINT
!.PRINTL
!   0 11
*SCF INP              !parte da Hartree-Fock
.DOUBLY OCCUPIED
4
.THRESH               !soglia di convergenza
 1.0D-10
*CONFIGURATION INPUT
.SPIN MULTIPLICITY
1
.SYMMETRY
1
.INACTIVE ORBITALS !the inner electrons are kept frozen
0
.CAS SPACE
6
.ELECTRONS
8
**RESPONS
*LINEAR
.THCLR
1.0d-9
.DIPLEN
.SINGLE RESIDUE
.ROOTS
300
**END OF INPUT


   Content of the .mol file
 ----------------------------

BASIS
cc-pVDZ
test VQE
dalton test
Atomtypes=2 Angstrom Nosymmetry
Charge=6.0 Atoms=1
O     0.1035000000000000  0.0000000000000000  0.0
Charge=1.0 Atoms=2
H    -0.4640000000000000  0.7956000000000000  0.0
H    -0.4640000000000000  -0.7956000000000000  0.0


       *******************************************************************
       *********** Output from DALTON general input processing ***********
       *******************************************************************

 --------------------------------------------------------------------------------
   Overall default print level:    0
   Print level for DALTON.STAT:    1

    HERMIT 1- and 2-electron integral sections will be executed
    "Old" integral transformation used (limited to max 255 basis functions)
    Wave function sections will be executed (SIRIUS module)
    Dynamic molecular response properties section will be executed (RESPONSE module)
 --------------------------------------------------------------------------------


   ****************************************************************************
   *************** Output of molecule and basis set information ***************
   ****************************************************************************


    The two title cards from your ".mol" input:
    --------------------------------------------------------------------------------
 1: test VQE
 2: dalton test
    --------------------------------------------------------------------------------

  Coordinates are entered in Angstrom and converted to atomic units.
          - Conversion factor : 1 bohr = 0.52917721 A

  Atomic type no.    1
  --------------------
  Nuclear charge:   6.00000
  Number of symmetry independent centers:    1
  Number of basis sets to read;    2
  Basis set file used for this atomic type with Z =   6 :
     "/zhome/d7/7/119775/My_Codes/Dalton_Release/dalton/build_omp_nov24/basis/cc-pVDZ"

  Atomic type no.    2
  --------------------
  Nuclear charge:   1.00000
  Number of symmetry independent centers:    2
  Number of basis sets to read;    2
  Basis set file used for this atomic type with Z =   1 :
     "/zhome/d7/7/119775/My_Codes/Dalton_Release/dalton/build_omp_nov24/basis/cc-pVDZ"


                         SYMGRP: Point group information
                         -------------------------------

@    Point group: C1 


                                 Isotopic Masses
                                 ---------------

                           O          12.000000
                           H           1.007825
                           H           1.007825

                       Total mass:    14.015650 amu
                       Natural abundance:  98.870 %

 Center-of-mass coordinates (a.u.):    0.041357    0.000000    0.000000
 Center-of-mass coordinates (Angs):    0.021885    0.000000    0.000000


  Atoms and basis sets
  --------------------

  Number of atom types :    2
  Total number of atoms:    3

  Basis set used is "cc-pVDZ" from the basis set library.

  label    atoms   charge   prim   cont     basis
  ----------------------------------------------------------------------
  O           1    6.0000    26    14      [9s4p1d|3s2p1d]                                    
  H           2    1.0000     7     5      [4s1p|2s1p]                                        
  ----------------------------------------------------------------------
  total:      3    8.0000    40    24
  ----------------------------------------------------------------------
  Spherical harmonic basis used.

  Threshold for neglecting AO integrals:  1.00D-12


  Cartesian Coordinates (a.u.)
  ----------------------------

  Total number of coordinates:    9
  O       :     1  x   0.1955866539    2  y   0.0000000000    3  z   0.0000000000
  H       :     4  x  -0.8768329220    5  y   1.5034661050    6  z   0.0000000000
  H       :     7  x  -0.8768329220    8  y  -1.5034661050    9  z   0.0000000000


   Interatomic separations (in Angstrom):
   --------------------------------------

            O           H           H     
            ------      ------      ------
 O     :    0.000000
 H     :    0.977259    0.000000
 H     :    0.977259    1.591200    0.000000


  Max    interatomic separation is    1.5912 Angstrom (    3.0069 Bohr)
  between atoms    3 and    2, "H     " and "H     ".

  Min HX interatomic separation is    0.9773 Angstrom (    1.8468 Bohr)


  Bond distances (Angstrom):
  --------------------------

                  atom 1     atom 2       distance
                  ------     ------       --------
  bond distance:  H          O            0.977259
  bond distance:  H          O            0.977259


  Bond angles (degrees):
  ----------------------

                  atom 1     atom 2     atom 3         angle
                  ------     ------     ------         -----
  bond angle:     H          O          H            109.000




 Principal moments of inertia (u*A**2) and principal axes
 --------------------------------------------------------

   IA       0.555795          0.000000    1.000000    0.000000
   IB       1.275865          1.000000    0.000000    0.000000
   IC       1.831660          0.000000    0.000000    1.000000


 Rotational constants
 --------------------

@    The molecule is planar.

               A                   B                   C

         909289.8431         396107.0071         275913.0898 MHz
           30.330644           13.212708            9.203470 cm-1


@  Nuclear repulsion energy :    6.830458472614 Hartree


                     .---------------------------------------.
                     | Starting in Integral Section (HERMIT) |
                     `---------------------------------------'



 ***************************************************************************************
 ****************** Output from **INTEGRALS input processing (HERMIT) ******************
 ***************************************************************************************



    *************************************************************************
    ****************** Output from HERMIT input processing ******************
    *************************************************************************


 Default print level:        1

 Calculation of one- and two-electron Hamiltonian integrals.

 The following one-electron property integrals are calculated as requested:
          - overlap integrals
          - dipole length integrals

 Center of mass  (bohr):      0.041357451707      0.000000000000      0.000000000000
 Operator center (bohr):      0.000000000000      0.000000000000      0.000000000000
 Gauge origin    (bohr):      0.000000000000      0.000000000000      0.000000000000
 Dipole origin   (bohr):      0.000000000000      0.000000000000      0.000000000000

Calculation of 2-electron integrals are postponed until they are needed.


     ************************************************************************
     ************************** Output from HERINT **************************
     ************************************************************************



                      Nuclear contribution to dipole moments
                      --------------------------------------

                 au               Debye          C m (/(10**-30)

      x     -0.58014592        -1.47458375        -4.91868195
      y      0.00000000         0.00000000         0.00000000
      z      0.00000000         0.00000000         0.00000000


  Total CPU  time used in HERMIT:   0.02 seconds
  Total wall time used in HERMIT:   0.06 seconds


                        .----------------------------------.
                        | End of Integral Section (HERMIT) |
                        `----------------------------------'



                   .--------------------------------------------.
                   | Starting in Wave Function Section (SIRIUS) |
                   `--------------------------------------------'


     WARNING  Reference state is required for CI response and CI-NO
     WARNING  ".STATE" was not specified for "*CI INPUT",
     WARNING  the reference state is set to be state no.  1

 *** Output from Huckel module :

     Using EWMO model:          T
     Using EHT  model:          F
     Number of Huckel orbitals each symmetry:    7

 EWMO - Energy Weighted Maximum Overlap - is a Huckel type method,
        which normally is better than Extended Huckel Theory.
 Reference: Linderberg and Ohrn, Propagators in Quantum Chemistry (Wiley, 1973)

 Huckel EWMO eigenvalues for symmetry :  1
          -11.347822      -1.217320      -0.652833      -0.453354      -0.406900
           -0.098571      -0.094400

 **********************************************************************
 *SIRIUS* a direct, restricted step, second order MCSCF program       *
 **********************************************************************

 
     Date and time (Linux)  : Tue Jul  7 10:35:01 2026
     Host name              : n-62-31-21                              

 Title lines from ".mol" input file:
     test VQE
     dalton test

 Print level on unit LUPRI =   2 is   0
 Print level on unit LUW4  =   2 is   5

@    Configuration interaction calculation.

@    CI response calculation.

@    CI type: user specified active spaces.
@              Type: complete active space calculation (CAS).

@    This is a combination run starting with
@              a restricted, closed shell Hartree-Fock calculation


 Initial molecular orbitals are obtained according to
 ".MOSTART EWMO  " input option

     Wave function specification
     ============================
@    Wave function type        --- CI ---
@    Number of closed shell electrons           0
@    Number of electrons in active shells       8
@    Total charge of the molecule               0

@    Spin multiplicity and 2 M_S                1         0
@    Total number of symmetries                 1 (point group: C1 )
@    Reference state symmetry                   1 (irrep name : A  )

     Orbital specifications
     ======================
@    Abelian symmetry species          All |    1
@                                          |  A  
                                       --- |  ---
@    Inactive orbitals                   0 |    0
@    Active orbitals                     6 |    6
@    Secondary orbitals                 18 |   18
@    Total number of orbitals           24 |   24
@    Number of basis functions          24 |   24

      -- Initial occupation of symmetries is determined from user input.                      
      -- Initial occupation of symmetries is :
@    Occupied SCF orbitals               4 |    4

     Optimization information
     ========================
@    Number of configurations               105
@    Number of orbital rotations              0
     ------------------------------------------
@    Total number of variables              105

     Maximum number of CI iterations         25
     Threshold for CI convergence      1.00D-05
     Number of CI roots to converge           1

@    Reference state in CI response calculation :       1


 ***********************************************
 ***** DIIS acceleration of SCF iterations *****
 ***********************************************

 C1-DIIS algorithm; max error vectors =    8

 Iter      Total energy        Error norm    Delta(E)  DIIS dim.
 -----------------------------------------------------------------------------

Calculating AOSUPINT

---> (Re)generating AOTWOINT


     ************************************************************************
     ************************** Output from HERINT **************************
     ************************************************************************


 Threshold for neglecting two-electron integrals:  1.00D-12
 HERMIT - Number of two-electron integrals written:       21669 ( 48.0% )
 HERMIT - Megabytes written:                              0.275

     (Precalculated AO two-electron integrals are transformed to P-supermatrix elements.
      Threshold for discarding integrals :  1.00D-12 )

@  1    -38.6863921469        1.34608D+00   -3.87D+01    1
      Virial theorem: -V/T =      2.011693
@    MULPOP   O       0.16; H      -0.08; H      -0.08; 
   1  Level shift: doubly occupied orbital energies shifted by -2.00D-01
 -----------------------------------------------------------------------------
@  2    -38.8441475558        2.83577D-01   -1.58D-01    2
      Virial theorem: -V/T =      1.989915
@    MULPOP   O       0.03; H      -0.01; H      -0.01; 
   2  Level shift: doubly occupied orbital energies shifted by -5.00D-02
 -----------------------------------------------------------------------------
@  3    -38.8535714485        8.17065D-02   -9.42D-03    3
      Virial theorem: -V/T =      1.991112
@    MULPOP   O      -0.00; H       0.00; H       0.00; 
   3  Level shift: doubly occupied orbital energies shifted by -2.50D-02
 -----------------------------------------------------------------------------
@  4    -38.8544963036        1.72546D-02   -9.25D-04    4
      Virial theorem: -V/T =      1.990262
@    MULPOP   O      -0.04; H       0.02; H       0.02; 
 -----------------------------------------------------------------------------
@  5    -38.8545491697        2.48287D-03   -5.29D-05    5
      Virial theorem: -V/T =      1.990390
@    MULPOP   O      -0.05; H       0.03; H       0.03; 
 -----------------------------------------------------------------------------
@  6    -38.8545503414        4.52581D-04   -1.17D-06    6
      Virial theorem: -V/T =      1.990401
@    MULPOP   O      -0.05; H       0.03; H       0.03; 
 -----------------------------------------------------------------------------
@  7    -38.8545503839        7.18468D-05   -4.25D-08    7
      Virial theorem: -V/T =      1.990408
@    MULPOP   O      -0.05; H       0.03; H       0.03; 
 -----------------------------------------------------------------------------
@  8    -38.8545503851        1.30210D-05   -1.21D-09    8
      Virial theorem: -V/T =      1.990409
@    MULPOP   O      -0.05; H       0.03; H       0.03; 
 -----------------------------------------------------------------------------
@  9    -38.8545503851        1.79887D-06   -4.14D-11    8
      Virial theorem: -V/T =      1.990409
@    MULPOP   O      -0.05; H       0.03; H       0.03; 
 -----------------------------------------------------------------------------
@ 10    -38.8545503851        2.41543D-07   -8.24D-13    8
      Virial theorem: -V/T =      1.990409
@    MULPOP   O      -0.05; H       0.03; H       0.03; 
 -----------------------------------------------------------------------------
@ 11    -38.8545503851        2.51243D-08   -1.42D-14    8
      Virial theorem: -V/T =      1.990409
@    MULPOP   O      -0.05; H       0.03; H       0.03; 
 -----------------------------------------------------------------------------
@ 12    -38.8545503851        1.74228D-09    1.42D-14    8
      Virial theorem: -V/T =      1.990409
@    MULPOP   O      -0.05; H       0.03; H       0.03; 
 -----------------------------------------------------------------------------
@ 13    -38.8545503851        2.15133D-10    1.42D-14    8
      Virial theorem: -V/T =      1.990409
@    MULPOP   O      -0.05; H       0.03; H       0.03; 
 -----------------------------------------------------------------------------
@ 14    -38.8545503851        2.72506D-11   -2.84D-14    8

@ *** DIIS converged in  14 iterations !
@     Converged SCF energy, gradient:    -38.854550385126    2.73D-11
    - total time used in SIRFCK :              0.00 seconds

 --- Writing SIRIFC interface file

--------------------------------------------------------------------------------


     .--------------------------------------------------.
     | HF-SCF KT IPs [a.u. & eV] from Koopmans' theorem |
     `--------------------------------------------------'


     HF-SCF KT symmetry 1 ( A  ) in point group C1  -- 4 principal poles with pole strength 1

   ============  ============  ============  ============
      11.259787      0.933645      0.614120      0.377352
     306.394389     25.405776     16.711059     10.268277
   ============  ============  ============  ============

@ Summary of HF-SCF KT ionization potentials [eV]:

@ Symmetry 1 (A  ) :   306.394      25.406      16.711      10.268

  === End of HF-SCF KT output ===
--------------------------------------------------------------------------------


 CPU and wall time for SCF :       0.119       0.550


 ----- Output from SIRIUS CI module (CICTL) -----




 2-el. integral transformation level 0: Total CPU and WALL times (sec)       0.014       0.037

 (CIST1) 8 lowest diagonal elements:

 Element no. Config.no.    Active energy      Total energy

         1 :          1    -45.6850088577    -38.8545503851
         2 :         16    -45.6545614353    -38.8241029627
         3 :          2    -45.4852523476    -38.6547938750
         4 :         19    -45.4238501376    -38.5933916650
         5 :         17    -45.3605085045    -38.5300500319
         6 :         28    -45.3562447113    -38.5257862386
         7 :         18    -45.2013138817    -38.3708554091
         8 :         20    -45.1548059706    -38.3243474979


 (CIST1) number of start vectors is increased from  1 to  2 because of (near) degeneracy

Lowest 2 elements are used as separate start CI vectors.


 Convergence threshold for CI optimization :     0.00001000


 CI root     eigenvalue        residual norm

    1      -38.8545503851        0.0963948131

 CI root     eigenvalue        residual norm

    1      -38.8647102393        0.0123514164

 CI root     eigenvalue        residual norm

    1      -38.8648210440        0.0016533507

 CI root     eigenvalue        residual norm

    1      -38.8648229725        0.0001582897

 CI root     eigenvalue        residual norm

    1      -38.8648229890        0.0000209409

 CI root     eigenvalue        residual norm

    1      -38.8648229895        0.0000033266 converged

 The requested root number is now converged.


 *** CI converged in  6 iterations.



@ Final CI energies and residuals in symmetry 1 (irrep A  )
@    1      -38.864822989495245       3.33D-06

 Writing SIRIFC interface file for CI root no. 1

 CPU and wall time for CI :       0.024       0.088


                       .-----------------------------------.
                       | --- Final results from SIRIUS --- |
                       `-----------------------------------'


@    Spin multiplicity:           1
@    Spatial symmetry:            1 ( irrep  A   in C1  )
@    Total charge of molecule:    0

@    This was a CI calculation.
@    State number:                1

@    Final CI energy:             -38.864822989495
@    Nuclear repulsion:             6.830458472614
@    Electronic energy:           -45.695281462109

@    Final gradient norm:           0.000003326584

 
     Date and time (Linux)  : Tue Jul  7 10:35:02 2026
     Host name              : n-62-31-21                              

 Occupancies of natural orbitals
 -------------------------------

 Symmetry 1  ( A  ) -- Total occupation in this symmetry is   8.000000000

   1.999999435   1.996761480   1.999384034   1.957829325   0.045230803
   0.000794923

  Effective numbers of unpaired electrons this symmetry Eqs. 1) and 2):  0.18  0.01

  Total effective number of unpaired electrons :
  Eq. 1) sum(i) [(2 - n_i) n_i]    =  0.1803
  Eq. 2) sum(i) [(2 - n_i) n_i]**2 =  0.0147
 (Reference: M. Head-Gordon, Chemical Physics Letters 372 (2003) 508-511)

  --- NOTE THAT THE OCCUPATION NUMBERS ARE FOR ANALYSIS PURPOSE ONLY
  --- The orbital coefficients have NOT been transformed
  --- to ordered natural orbitals.

File label for MO orbitals:   7Jul26    CIORB  

 (Only coefficients > 0.0100 are printed.)

 Molecular orbitals for symmetry species 1  (A  )
 ------------------------------------------------

    Orbital         1        2        3        4        5        6        7
   1 O   :1s    -1.0017   0.0288   0.0000   0.0021  -0.0000  -0.0678   0.0000
   2 O   :1s    -0.0088  -0.7436   0.0000  -0.3924  -0.0000   0.1564   0.0000
   3 O   :1s     0.0083   0.1859  -0.0000  -0.1702   0.0000   2.1089  -0.0000
   4 O   :2px    0.0052   0.2041  -0.0000  -0.7723  -0.0000  -0.2334  -0.0000
   5 O   :2py    0.0000   0.0000  -0.6838  -0.0000  -0.0000  -0.0000  -0.4647
   6 O   :2pz    0.0000   0.0000   0.0000   0.0000  -0.6456  -0.0000   0.0000
   7 O   :2px   -0.0040  -0.0871   0.0000  -0.0408  -0.0000  -0.5830   0.0000
   8 O   :2py   -0.0000  -0.0000   0.1725   0.0000   0.0000   0.0000  -1.1878
   9 O   :2pz    0.0000   0.0000   0.0000   0.0000  -0.3856  -0.0000   0.0000
  10 O   :3d2-  -0.0000   0.0000   0.0488  -0.0000   0.0000  -0.0000   0.0554
  12 O   :3d0    0.0015   0.0094   0.0000  -0.0236   0.0000  -0.0309   0.0000
  13 O   :3d1+  -0.0000  -0.0000  -0.0000  -0.0000   0.0328   0.0000  -0.0000
  14 O   :3d2+   0.0003  -0.0040   0.0000   0.0250   0.0000  -0.0043   0.0000
  15 H   :1s     0.0024  -0.4717  -0.5688   0.2281   0.0000   0.0117  -0.0204
  16 H   :1s    -0.0031   0.1983   0.1639  -0.0788  -0.0000  -1.5519   2.1788
  17 H   :2px    0.0006  -0.0159  -0.0170  -0.0108   0.0000  -0.0106   0.0132
  18 H   :2py   -0.0009   0.0299   0.0108  -0.0100   0.0000   0.0214  -0.0270
  19 H   :2pz   -0.0000  -0.0000  -0.0000  -0.0000  -0.0158   0.0000  -0.0000
  20 H   :1s     0.0024  -0.4717   0.5688   0.2281   0.0000   0.0117   0.0204
  21 H   :1s    -0.0031   0.1983  -0.1639  -0.0788   0.0000  -1.5519  -2.1788
  22 H   :2px    0.0006  -0.0159   0.0170  -0.0108   0.0000  -0.0106  -0.0132
  23 H   :2py    0.0009  -0.0299   0.0108   0.0100   0.0000  -0.0214  -0.0270
  24 H   :2pz   -0.0000  -0.0000  -0.0000  -0.0000  -0.0158   0.0000  -0.0000

    Orbital         8        9       10       11       12       13       14
   1 O   :1s     0.0000   0.0340  -0.0000  -0.2644  -0.0000  -0.7132  -0.0000
   2 O   :1s     0.0000  -0.1429  -0.0000  -0.9538  -0.0000  -3.3762  -0.0000
   3 O   :1s    -0.0000  -1.0576   0.0000   1.5506   0.0000   5.8207  -0.0000
   4 O   :2px   -0.0000  -1.0920  -0.0000  -0.7480   0.0000   0.1168   0.0000
   5 O   :2py   -0.4221  -0.0000  -0.0000   0.0000   1.1561  -0.0000  -0.0000
   6 O   :2pz   -0.0000   0.0000  -1.5782  -0.0000  -0.0000   0.0000  -0.0000
   7 O   :2px    0.0000   1.9823  -0.0000   0.4107  -0.0000  -0.9125  -0.0000
   8 O   :2py    1.8809   0.0000   0.0000  -0.0000  -2.1565   0.0000  -0.0000
   9 O   :2pz   -0.0000   0.0000   1.7313  -0.0000  -0.0000   0.0000   0.0000
  10 O   :3d2-   0.0852   0.0000   0.0000   0.0000   0.3982  -0.0000   0.0000
  11 O   :3d1-  -0.0000  -0.0000  -0.0000  -0.0000  -0.0000   0.0000   0.6347
  12 O   :3d0    0.0000  -0.0517   0.0000   0.2423  -0.0000  -0.1225   0.0000
  14 O   :3d2+   0.0000  -0.0516   0.0000   0.1813  -0.0000  -0.0714  -0.0000
  15 H   :1s    -1.0840   0.7905   0.0000  -1.0378  -0.5049  -0.0097   0.0000
  16 H   :1s     0.0426   0.0334  -0.0000   0.5906   1.8455  -1.4125  -0.0000
  17 H   :2px    0.0312  -0.0190   0.0000  -0.0030   0.2160  -0.1667   0.0000
  18 H   :2py   -0.0051  -0.0174   0.0000  -0.2188  -0.1841   0.1970  -0.0000
  19 H   :2pz    0.0000  -0.0000  -0.0908   0.0000   0.0000  -0.0000   0.3429
  20 H   :1s     1.0840   0.7905   0.0000  -1.0378   0.5049  -0.0097   0.0000
  21 H   :1s    -0.0426   0.0334   0.0000   0.5906  -1.8455  -1.4125  -0.0000
  22 H   :2px   -0.0312  -0.0190   0.0000  -0.0030  -0.2160  -0.1667  -0.0000
  23 H   :2py   -0.0051   0.0174   0.0000   0.2188  -0.1841  -0.1970   0.0000
  24 H   :2pz    0.0000  -0.0000  -0.0908   0.0000   0.0000  -0.0000  -0.3429

    Orbital        15       16
   1 O   :1s    -0.1236   0.0000
   2 O   :1s    -0.4812   0.0000
   3 O   :1s     0.8320  -0.0000
   4 O   :2px   -0.3100   0.0000
   6 O   :2pz    0.0000   0.3077
   7 O   :2px   -0.1095   0.0000
   9 O   :2pz    0.0000  -0.0693
  12 O   :3d0    0.4367  -0.0000
  13 O   :3d1+  -0.0000   0.7875
  14 O   :3d2+  -0.5160  -0.0000
  15 H   :1s    -0.2733  -0.0000
  16 H   :1s     0.0143   0.0000
  17 H   :2px    0.2908  -0.0000
  18 H   :2py    0.1334  -0.0000
  19 H   :2pz   -0.0000  -0.2685
  20 H   :1s    -0.2733  -0.0000
  21 H   :1s     0.0143  -0.0000
  22 H   :2px    0.2908  -0.0000
  23 H   :2py   -0.1334  -0.0000
  24 H   :2pz   -0.0000  -0.2685

 Printout of CI-coefficients abs greater than 0.05000 for root  1
 *** NOTE: this root is the CI reference state ***

 Printout of coefficients in interval  3.1623E-01 to  1.0000E+00
 ===============================================================

  Coefficient of CSF no.         1 is      0.98842127    9.88421268E-01
  Orbital          1   2   3   4
  Spin coupling    2   2   2   2

 Printout of coefficients in interval  1.0000E-01 to  3.1623E-01
 ===============================================================

  Coefficient of CSF no.         2 is     -0.13825281   -1.38252808E-01
  Orbital          1   2   3   5
  Spin coupling    2   2   2   2

 Printout of coefficients in interval  5.0000E-02 to  1.0000E-01
 ===============================================================
   ( no coefficients )

 Norm of printed CI vector ..      0.99609044

 Magnitude of CI coefficients
 ============================
 ( Ranges are relative to norm of vector :  1.00E+00 )

  10- 1 to 10- 0         2    0.99609044E+00      0.9960904416
  10- 2 to 10- 1         4    0.36675649E-02      0.9997580066
  10- 3 to 10- 2         9    0.24059950E-03      0.9999986061
  10- 4 to 10- 3        11    0.13796576E-05      0.9999999857
  10- 5 to 10- 4        11    0.14165670E-07      0.9999999999
  10- 6 to 10- 5         4    0.11991983E-09      1.0000000000
  Number of coefficients less than 10^-11 times norm is           64

  Total CPU  time used in SIRIUS :   0.17 seconds
  Total wall time used in SIRIUS :   0.75 seconds

 
     Date and time (Linux)  : Tue Jul  7 10:35:02 2026
     Host name              : n-62-31-21                              


                     .---------------------------------------.
                     | End of Wave Function Section (SIRIUS) |
                     `---------------------------------------'



                 .------------------------------------------------.
                 | Starting in Dynamic Property Section (RESPONS) |
                 `------------------------------------------------'


 ----------------------------------------------------------------------------------------
  RESPONSE  -  an MCSCF, MC-srDFT, DFT, SOPPA and SOPPA-srDFT response property program
 ----------------------------------------------------------------------------------------

 This is a configuration interaction response calculation.
   Note: this is equivalent to a CI sum-over-states calculation of response properties.


 -------- OUTPUT FROM RESPONSE INPUT PROCESSING --------




  Linear Response single residue calculation
 -------------------------------------------


    4 input options by user.

 Print level                                    : IPRPP  =   2
 Maximum number of iterations for eigenval.eqs. : MAXITP =  60
 Threshold for convergence of eigenvalue eqs.   : THCPP  = 1.000D-03
 Maximum iterations in optimal orbital algorithm: MAXITO =   5

    300 Excitation energies are calculated for symmetry no.    1

      3 property residues are calculated with labels:

               XDIPLEN 
               YDIPLEN 
               ZDIPLEN 

 Old direct access AO file found, SORTA skipped.

 2-el. integral transformation level 4: Total CPU and WALL times (sec)       0.015       0.029


 CI energy            :      -38.864822989495245
 -- inactive part     :        6.830458472614062
 --   active part     :      -45.695281462109307
 -- nuclear repulsion :        6.830458472614062


                         *******************************
                         *** CI response calculation ***
                         *******************************

 ----------------------------------------------------------------
 ----- Linear response calculation
 ----- Symmetry of excitation/property operator(s)    1  ( A  )
 ----------------------------------------------------------------

 Number of excitations of this symmetry          300
 Number of response properties of this symmetry    0
 Number of C6/C8 properties of this symmetry       0


 Perturbation symmetry.     KSYMOP:           1
 Perturbation spin symmetry.TRPLET:           F
 Orbital variables.         KZWOPT:           0
 Configuration variables.   KZCONF:         105
 Total number of variables. KZVAR :         105

 ** RSPVAR ** Number of PP start vectors  300
   exceeds the maximum number of variables  104
   Number of start vectors reset to number of variables



 --- EXCITATION ENERGIES AND TRANSITION MOMENT CALCULATION (MCTDHF) ---

 Operator symmetry = 1  ( A  ); triplet =   F

RSPORT:    1 out of  105 new trial vectors linear dependent

 ** RSPCTL MICROITERATION NUMBER    1

      Root  Residual tot.,    conf., and orb.    Bnorm      Eigenvalue
      ----------------------------------------------------------------
         1    1.56066D-14  1.56D-14  0.00D+00  1.00D+00    7.31205D-02
         2    1.97530D-14  1.98D-14  0.00D+00  1.00D+00    1.95753D-01
         3    1.32134D-14  1.32D-14  0.00D+00  1.00D+00    2.90797D-01
         4    1.60427D-14  1.60D-14  0.00D+00  1.00D+00    3.33323D-01
         5    1.48160D-14  1.48D-14  0.00D+00  1.00D+00    3.62130D-01
         6    1.41260D-14  1.41D-14  0.00D+00  1.00D+00    4.70157D-01
         7    1.61241D-14  1.61D-14  0.00D+00  1.00D+00    5.43807D-01
         8    1.56082D-14  1.56D-14  0.00D+00  1.00D+00    5.98262D-01
         9    1.23677D-14  1.24D-14  0.00D+00  1.00D+00    6.40222D-01
        10    1.79214D-14  1.79D-14  0.00D+00  1.00D+00    6.46819D-01
        11    1.32867D-14  1.33D-14  0.00D+00  1.00D+00    6.76220D-01
        12    1.99640D-14  2.00D-14  0.00D+00  1.00D+00    7.38407D-01
        13    1.41800D-14  1.42D-14  0.00D+00  1.00D+00    7.86238D-01
        14    1.20489D-14  1.20D-14  0.00D+00  1.00D+00    8.62650D-01
        15    1.50404D-14  1.50D-14  0.00D+00  1.00D+00    8.78793D-01
        16    1.94777D-14  1.95D-14  0.00D+00  1.00D+00    9.27691D-01
        17    1.94855D-14  1.95D-14  0.00D+00  1.00D+00    9.44766D-01
        18    1.59859D-14  1.60D-14  0.00D+00  1.00D+00    9.67595D-01
        19    1.22137D-14  1.22D-14  0.00D+00  1.00D+00    1.02035D+00
        20    1.52319D-14  1.52D-14  0.00D+00  1.00D+00    1.04624D+00
        21    1.91593D-14  1.92D-14  0.00D+00  1.00D+00    1.12099D+00
        22    1.16781D-14  1.17D-14  0.00D+00  1.00D+00    1.14465D+00
        23    1.19069D-14  1.19D-14  0.00D+00  1.00D+00    1.16027D+00
        24    1.29369D-14  1.29D-14  0.00D+00  1.00D+00    1.19695D+00
        25    1.70656D-14  1.71D-14  0.00D+00  1.00D+00    1.25222D+00
        26    1.72313D-14  1.72D-14  0.00D+00  1.00D+00    1.25608D+00
        27    1.55191D-14  1.55D-14  0.00D+00  1.00D+00    1.37473D+00
        28    1.50171D-14  1.50D-14  0.00D+00  1.00D+00    1.37727D+00
        29    2.58324D-14  2.58D-14  0.00D+00  1.00D+00    1.38159D+00
        30    1.40363D-14  1.40D-14  0.00D+00  1.00D+00    1.45298D+00
        31    1.92735D-14  1.93D-14  0.00D+00  1.00D+00    1.46893D+00
        32    1.78161D-14  1.78D-14  0.00D+00  1.00D+00    1.55082D+00
        33    1.69944D-14  1.70D-14  0.00D+00  1.00D+00    1.59919D+00
        34    1.61178D-14  1.61D-14  0.00D+00  1.00D+00    1.61103D+00
        35    1.53022D-14  1.53D-14  0.00D+00  1.00D+00    1.61593D+00
        36    1.71066D-14  1.71D-14  0.00D+00  1.00D+00    1.68125D+00
        37    1.70623D-14  1.71D-14  0.00D+00  1.00D+00    1.70025D+00
        38    1.59062D-14  1.59D-14  0.00D+00  1.00D+00    1.77377D+00
        39    1.81208D-14  1.81D-14  0.00D+00  1.00D+00    1.88514D+00
        40    1.79608D-14  1.80D-14  0.00D+00  1.00D+00    1.95105D+00
        41    2.49194D-14  2.49D-14  0.00D+00  1.00D+00    2.02160D+00
        42    1.69927D-14  1.70D-14  0.00D+00  1.00D+00    2.02549D+00
        43    2.31571D-14  2.32D-14  0.00D+00  1.00D+00    2.06180D+00
        44    2.40814D-14  2.41D-14  0.00D+00  1.00D+00    2.12298D+00
        45    2.44264D-14  2.44D-14  0.00D+00  1.00D+00    2.12707D+00
        46    2.93396D-14  2.93D-14  0.00D+00  1.00D+00    2.30640D+00
        47    2.20193D-14  2.20D-14  0.00D+00  1.00D+00    2.32488D+00
        48    2.19996D-14  2.20D-14  0.00D+00  1.00D+00    2.42873D+00
        49    3.69207D-14  3.69D-14  0.00D+00  1.00D+00    2.77121D+00
        50    3.56686D-14  3.57D-14  0.00D+00  1.00D+00    1.07211D+01
        51    6.34424D-14  6.34D-14  0.00D+00  1.00D+00    1.08804D+01
        52    5.22429D-14  5.22D-14  0.00D+00  1.00D+00    1.10617D+01
        53    5.05181D-14  5.05D-14  0.00D+00  1.00D+00    1.11319D+01
        54    4.32113D-14  4.32D-14  0.00D+00  1.00D+00    1.12726D+01
        55    4.65038D-14  4.65D-14  0.00D+00  1.00D+00    1.13022D+01
        56    4.04000D-14  4.04D-14  0.00D+00  1.00D+00    1.14359D+01
        57    3.08640D-14  3.09D-14  0.00D+00  1.00D+00    1.14507D+01
        58    5.33334D-14  5.33D-14  0.00D+00  1.00D+00    1.14759D+01
        59    5.23319D-14  5.23D-14  0.00D+00  1.00D+00    1.15147D+01
        60    3.81392D-14  3.81D-14  0.00D+00  1.00D+00    1.16058D+01
        61    3.76060D-14  3.76D-14  0.00D+00  1.00D+00    1.16382D+01
        62    4.65067D-14  4.65D-14  0.00D+00  1.00D+00    1.18246D+01
        63    3.85275D-14  3.85D-14  0.00D+00  1.00D+00    1.18336D+01
        64    4.03060D-14  4.03D-14  0.00D+00  1.00D+00    1.18843D+01
        65    4.25635D-14  4.26D-14  0.00D+00  1.00D+00    1.19224D+01
        66    5.19143D-14  5.19D-14  0.00D+00  1.00D+00    1.19991D+01
        67    5.63333D-14  5.63D-14  0.00D+00  1.00D+00    1.20006D+01
        68    5.64990D-14  5.65D-14  0.00D+00  1.00D+00    1.21003D+01
        69    7.29261D-14  7.29D-14  0.00D+00  1.00D+00    1.21116D+01
        70    3.95939D-14  3.96D-14  0.00D+00  1.00D+00    1.21558D+01
        71    2.99241D-14  2.99D-14  0.00D+00  1.00D+00    1.21865D+01
        72    3.64424D-14  3.64D-14  0.00D+00  1.00D+00    1.21947D+01
        73    3.71632D-14  3.72D-14  0.00D+00  1.00D+00    1.23640D+01
        74    4.61241D-14  4.61D-14  0.00D+00  1.00D+00    1.24017D+01
        75    4.21888D-14  4.22D-14  0.00D+00  1.00D+00    1.24363D+01
        76    6.35368D-14  6.35D-14  0.00D+00  1.00D+00    1.24524D+01
        77    7.01626D-14  7.02D-14  0.00D+00  1.00D+00    1.25733D+01
        78    5.36533D-14  5.37D-14  0.00D+00  1.00D+00    1.26428D+01
        79    6.14364D-14  6.14D-14  0.00D+00  1.00D+00    1.27048D+01
        80    6.58489D-14  6.58D-14  0.00D+00  1.00D+00    1.27078D+01
        81    6.26429D-14  6.26D-14  0.00D+00  1.00D+00    1.27541D+01
        82    4.85157D-14  4.85D-14  0.00D+00  1.00D+00    1.28957D+01
        83    7.60127D-14  7.60D-14  0.00D+00  1.00D+00    1.29441D+01
        84    4.47862D-14  4.48D-14  0.00D+00  1.00D+00    1.29670D+01
        85    4.15568D-14  4.16D-14  0.00D+00  1.00D+00    1.31520D+01
        86    5.18149D-14  5.18D-14  0.00D+00  1.00D+00    1.32222D+01
        87    3.88891D-14  3.89D-14  0.00D+00  1.00D+00    1.32595D+01
        88    5.70799D-14  5.71D-14  0.00D+00  1.00D+00    1.34620D+01
        89    3.60512D-14  3.61D-14  0.00D+00  1.00D+00    1.36238D+01
        90    1.08377D-13  1.08D-13  0.00D+00  1.00D+00    2.41372D+01
        91    1.01840D-13  1.02D-13  0.00D+00  1.00D+00    2.46833D+01
        92    9.16805D-14  9.17D-14  0.00D+00  1.00D+00    2.49321D+01
        93    1.14076D-13  1.14D-13  0.00D+00  1.00D+00    2.50677D+01
        94    8.10379D-14  8.10D-14  0.00D+00  1.00D+00    2.54260D+01
        95    1.00413D-13  1.00D-13  0.00D+00  1.00D+00    2.55245D+01
        96    1.24263D-13  1.24D-13  0.00D+00  1.00D+00    2.56914D+01
        97    8.26890D-14  8.27D-14  0.00D+00  1.00D+00    2.57669D+01
        98    7.72655D-14  7.73D-14  0.00D+00  1.00D+00    2.59998D+01
        99    1.18769D-13  1.19D-13  0.00D+00  1.00D+00    2.60573D+01
       100    1.10386D-13  1.10D-13  0.00D+00  1.00D+00    2.61946D+01
       101    1.06970D-13  1.07D-13  0.00D+00  1.00D+00    2.63458D+01
       102    1.09989D-13  1.10D-13  0.00D+00  1.00D+00    2.66593D+01
       103    4.77677D-14  4.78D-14  0.00D+00  1.00D+00    2.68439D+01
       104    7.56026D-14  7.56D-14  0.00D+00  1.00D+00    2.72446D+01
       105    1.85342D-14  1.85D-14  0.00D+00  1.00D+00   -7.31205D-02

 *** THE REQUESTED  104 SOLUTION VECTORS CONVERGED

 Convergence of RSP solution vectors, threshold = 1.00D-03
 ---------------------------------------------------------------
 (dimension of paired reduced space:  208)
 RSP solution vector no.    1; norm of residual   1.56D-14
 RSP solution vector no.    2; norm of residual   1.98D-14
 RSP solution vector no.    3; norm of residual   1.32D-14
 RSP solution vector no.    4; norm of residual   1.60D-14
 RSP solution vector no.    5; norm of residual   1.48D-14
 RSP solution vector no.    6; norm of residual   1.41D-14
 RSP solution vector no.    7; norm of residual   1.61D-14
 RSP solution vector no.    8; norm of residual   1.56D-14
 RSP solution vector no.    9; norm of residual   1.24D-14
 RSP solution vector no.   10; norm of residual   1.79D-14
 RSP solution vector no.   11; norm of residual   1.33D-14
 RSP solution vector no.   12; norm of residual   2.00D-14
 RSP solution vector no.   13; norm of residual   1.42D-14
 RSP solution vector no.   14; norm of residual   1.20D-14
 RSP solution vector no.   15; norm of residual   1.50D-14
 RSP solution vector no.   16; norm of residual   1.95D-14
 RSP solution vector no.   17; norm of residual   1.95D-14
 RSP solution vector no.   18; norm of residual   1.60D-14
 RSP solution vector no.   19; norm of residual   1.22D-14
 RSP solution vector no.   20; norm of residual   1.52D-14
 RSP solution vector no.   21; norm of residual   1.92D-14
 RSP solution vector no.   22; norm of residual   1.17D-14
 RSP solution vector no.   23; norm of residual   1.19D-14
 RSP solution vector no.   24; norm of residual   1.29D-14
 RSP solution vector no.   25; norm of residual   1.71D-14
 RSP solution vector no.   26; norm of residual   1.72D-14
 RSP solution vector no.   27; norm of residual   1.55D-14
 RSP solution vector no.   28; norm of residual   1.50D-14
 RSP solution vector no.   29; norm of residual   2.58D-14
 RSP solution vector no.   30; norm of residual   1.40D-14
 RSP solution vector no.   31; norm of residual   1.93D-14
 RSP solution vector no.   32; norm of residual   1.78D-14
 RSP solution vector no.   33; norm of residual   1.70D-14
 RSP solution vector no.   34; norm of residual   1.61D-14
 RSP solution vector no.   35; norm of residual   1.53D-14
 RSP solution vector no.   36; norm of residual   1.71D-14
 RSP solution vector no.   37; norm of residual   1.71D-14
 RSP solution vector no.   38; norm of residual   1.59D-14
 RSP solution vector no.   39; norm of residual   1.81D-14
 RSP solution vector no.   40; norm of residual   1.80D-14
 RSP solution vector no.   41; norm of residual   2.49D-14
 RSP solution vector no.   42; norm of residual   1.70D-14
 RSP solution vector no.   43; norm of residual   2.32D-14
 RSP solution vector no.   44; norm of residual   2.41D-14
 RSP solution vector no.   45; norm of residual   2.44D-14
 RSP solution vector no.   46; norm of residual   2.93D-14
 RSP solution vector no.   47; norm of residual   2.20D-14
 RSP solution vector no.   48; norm of residual   2.20D-14
 RSP solution vector no.   49; norm of residual   3.69D-14
 RSP solution vector no.   50; norm of residual   3.57D-14
 RSP solution vector no.   51; norm of residual   6.34D-14
 RSP solution vector no.   52; norm of residual   5.22D-14
 RSP solution vector no.   53; norm of residual   5.05D-14
 RSP solution vector no.   54; norm of residual   4.32D-14
 RSP solution vector no.   55; norm of residual   4.65D-14
 RSP solution vector no.   56; norm of residual   4.04D-14
 RSP solution vector no.   57; norm of residual   3.09D-14
 RSP solution vector no.   58; norm of residual   5.33D-14
 RSP solution vector no.   59; norm of residual   5.23D-14
 RSP solution vector no.   60; norm of residual   3.81D-14
 RSP solution vector no.   61; norm of residual   3.76D-14
 RSP solution vector no.   62; norm of residual   4.65D-14
 RSP solution vector no.   63; norm of residual   3.85D-14
 RSP solution vector no.   64; norm of residual   4.03D-14
 RSP solution vector no.   65; norm of residual   4.26D-14
 RSP solution vector no.   66; norm of residual   5.19D-14
 RSP solution vector no.   67; norm of residual   5.63D-14
 RSP solution vector no.   68; norm of residual   5.65D-14
 RSP solution vector no.   69; norm of residual   7.29D-14
 RSP solution vector no.   70; norm of residual   3.96D-14
 RSP solution vector no.   71; norm of residual   2.99D-14
 RSP solution vector no.   72; norm of residual   3.64D-14
 RSP solution vector no.   73; norm of residual   3.72D-14
 RSP solution vector no.   74; norm of residual   4.61D-14
 RSP solution vector no.   75; norm of residual   4.22D-14
 RSP solution vector no.   76; norm of residual   6.35D-14
 RSP solution vector no.   77; norm of residual   7.02D-14
 RSP solution vector no.   78; norm of residual   5.37D-14
 RSP solution vector no.   79; norm of residual   6.14D-14
 RSP solution vector no.   80; norm of residual   6.58D-14
 RSP solution vector no.   81; norm of residual   6.26D-14
 RSP solution vector no.   82; norm of residual   4.85D-14
 RSP solution vector no.   83; norm of residual   7.60D-14
 RSP solution vector no.   84; norm of residual   4.48D-14
 RSP solution vector no.   85; norm of residual   4.16D-14
 RSP solution vector no.   86; norm of residual   5.18D-14
 RSP solution vector no.   87; norm of residual   3.89D-14
 RSP solution vector no.   88; norm of residual   5.71D-14
 RSP solution vector no.   89; norm of residual   3.61D-14
 RSP solution vector no.   90; norm of residual   1.08D-13
 RSP solution vector no.   91; norm of residual   1.02D-13
 RSP solution vector no.   92; norm of residual   9.17D-14
 RSP solution vector no.   93; norm of residual   1.14D-13
 RSP solution vector no.   94; norm of residual   8.10D-14
 RSP solution vector no.   95; norm of residual   1.00D-13
 RSP solution vector no.   96; norm of residual   1.24D-13
 RSP solution vector no.   97; norm of residual   8.27D-14
 RSP solution vector no.   98; norm of residual   7.73D-14
 RSP solution vector no.   99; norm of residual   1.19D-13
 RSP solution vector no.  100; norm of residual   1.10D-13
 RSP solution vector no.  101; norm of residual   1.07D-13
 RSP solution vector no.  102; norm of residual   1.10D-13
 RSP solution vector no.  103; norm of residual   4.78D-14
 RSP solution vector no.  104; norm of residual   7.56D-14

 *** RSPCTL MICROITERATIONS CONVERGED

@ Singlet transition operator label: XDIPLEN 
@ STATE NO:    1 *TRANSITION MOMENT: -9.01472658E-15 *ENERGY(eV):   1.9897093    
@ STATE NO:    2 *TRANSITION MOMENT: -0.18252294     *ENERGY(eV):   5.3267230    
@ STATE NO:    3 *TRANSITION MOMENT: -7.35566882E-15 *ENERGY(eV):   7.9129851    
@ STATE NO:    4 *TRANSITION MOMENT: -0.66550278     *ENERGY(eV):   9.0701863    
@ STATE NO:    5 *TRANSITION MOMENT:  2.86504750E-14 *ENERGY(eV):   9.8540592    
@ STATE NO:    6 *TRANSITION MOMENT:  2.18169197E-15 *ENERGY(eV):   12.793628    
@ STATE NO:    7 *TRANSITION MOMENT: -2.50899180E-13 *ENERGY(eV):   14.797738    
@ STATE NO:    8 *TRANSITION MOMENT: -3.15199603E-15 *ENERGY(eV):   16.279537    
@ STATE NO:    9 *TRANSITION MOMENT: -6.39902818E-16 *ENERGY(eV):   17.421333    
@ STATE NO:   10 *TRANSITION MOMENT:  7.87794205E-03 *ENERGY(eV):   17.600831    
@ STATE NO:   11 *TRANSITION MOMENT: -5.22719916E-15 *ENERGY(eV):   18.400870    
@ STATE NO:   12 *TRANSITION MOMENT:  0.20015262     *ENERGY(eV):   20.093069    
@ STATE NO:   13 *TRANSITION MOMENT: -1.58302037E-15 *ENERGY(eV):   21.394624    
@ STATE NO:   14 *TRANSITION MOMENT:  4.62277065E-16 *ENERGY(eV):   23.473902    
@ STATE NO:   15 *TRANSITION MOMENT:  0.19201969     *ENERGY(eV):   23.913168    

@ Singlet transition operator label: YDIPLEN 
@ STATE NO:    1 *TRANSITION MOMENT: -9.67492765E-16 *ENERGY(eV):   1.9897093    
@ STATE NO:    2 *TRANSITION MOMENT: -1.53418952E-15 *ENERGY(eV):   5.3267230    
@ STATE NO:    3 *TRANSITION MOMENT: -3.32849977E-15 *ENERGY(eV):   7.9129851    
@ STATE NO:    4 *TRANSITION MOMENT:  3.20212912E-14 *ENERGY(eV):   9.0701863    
@ STATE NO:    5 *TRANSITION MOMENT: -6.04835189E-02 *ENERGY(eV):   9.8540592    
@ STATE NO:    6 *TRANSITION MOMENT:  2.06123658E-14 *ENERGY(eV):   12.793628    
@ STATE NO:    7 *TRANSITION MOMENT:  0.94964216     *ENERGY(eV):   14.797738    
@ STATE NO:    8 *TRANSITION MOMENT: -8.18521838E-15 *ENERGY(eV):   16.279537    
@ STATE NO:    9 *TRANSITION MOMENT: -1.10349395E-14 *ENERGY(eV):   17.421333    
@ STATE NO:   10 *TRANSITION MOMENT: -4.26774026E-15 *ENERGY(eV):   17.600831    
@ STATE NO:   11 *TRANSITION MOMENT:  9.68598989E-15 *ENERGY(eV):   18.400870    
@ STATE NO:   12 *TRANSITION MOMENT: -2.04258887E-14 *ENERGY(eV):   20.093069    
@ STATE NO:   13 *TRANSITION MOMENT:  2.19502226E-02 *ENERGY(eV):   21.394624    
@ STATE NO:   14 *TRANSITION MOMENT:  1.15448749E-15 *ENERGY(eV):   23.473902    
@ STATE NO:   15 *TRANSITION MOMENT:  3.42006290E-13 *ENERGY(eV):   23.913168    

@ Singlet transition operator label: ZDIPLEN 
@ STATE NO:    1 *TRANSITION MOMENT: -0.40940147     *ENERGY(eV):   1.9897093    
@ STATE NO:    2 *TRANSITION MOMENT:  3.86872284E-15 *ENERGY(eV):   5.3267230    
@ STATE NO:    3 *TRANSITION MOMENT: -1.77285140E-13 *ENERGY(eV):   7.9129851    
@ STATE NO:    4 *TRANSITION MOMENT:  5.58829437E-15 *ENERGY(eV):   9.0701863    
@ STATE NO:    5 *TRANSITION MOMENT: -1.15109016E-14 *ENERGY(eV):   9.8540592    
@ STATE NO:    6 *TRANSITION MOMENT:  0.10872334     *ENERGY(eV):   12.793628    
@ STATE NO:    7 *TRANSITION MOMENT:  1.52895389E-14 *ENERGY(eV):   14.797738    
@ STATE NO:    8 *TRANSITION MOMENT:  3.19959939E-15 *ENERGY(eV):   16.279537    
@ STATE NO:    9 *TRANSITION MOMENT:  3.18447541E-14 *ENERGY(eV):   17.421333    
@ STATE NO:   10 *TRANSITION MOMENT: -1.06464078E-14 *ENERGY(eV):   17.600831    
@ STATE NO:   11 *TRANSITION MOMENT:  -1.0487789     *ENERGY(eV):   18.400870    
@ STATE NO:   12 *TRANSITION MOMENT: -5.04982488E-15 *ENERGY(eV):   20.093069    
@ STATE NO:   13 *TRANSITION MOMENT: -1.37153957E-14 *ENERGY(eV):   21.394624    
@ STATE NO:   14 *TRANSITION MOMENT: -2.04116587E-02 *ENERGY(eV):   23.473902    
@ STATE NO:   15 *TRANSITION MOMENT:  3.85224465E-15 *ENERGY(eV):   23.913168    


 **************************************************************************************
 *** @ Excit. operator sym 1 & ref. state sym 1 => excited state symmetry 1  ( A  ) ***
 **************************************************************************************



 @ Excited state no:    1 in symmetry 1  ( A  ) - singlet excitation
 -------------------------------------------------------------------

@ Excitation energy :  7.31204720E-02 au
@                       1.9897093     eV;   16048.088     cm-1;   191.97777     kJ / mol

@ Total energy :       -38.791703     au

@ Operator label: XDIPLEN ; Transition moment : -9.01472658E-15 au
@ Oscillator strength (LENGTH)   :  3.96143783E-30  (X-polarization)

@ Operator label: YDIPLEN ; Transition moment : -9.67492765E-16 au
@ Oscillator strength (LENGTH)   :  4.56292341E-32  (Y-polarization)

@ Operator label: ZDIPLEN ; Transition moment : -0.40940147     au
@ Oscillator strength (LENGTH)   :  8.17046030E-03  (Z-polarization)
@ Total oscillator strength (LENGTH)   :  8.17046030E-03

 Eigenvector for state no.  1

      Index(conf)                         Z operator          Y operator
      ----------                      --------------      --------------
          16                           -0.9978047743        0.0000000000

      104 elements with absolute value ≤ 1.00D-01 are not printed.

 Printout of coefficients in interval  3.1623E-01 to  1.0000E+00
 ===============================================================

  Coefficient of CSF no.        16 is     -0.99780477   -9.97804774E-01
  Orbital          1   2   3   4   5
  Spin coupling    2   2   2   1  -1

 Printout of coefficients in interval  1.0000E-01 to  3.1623E-01
 ===============================================================
   ( no coefficients )

 Norm of printed CI vector ..      0.99561437

 Magnitude of CI coefficients
 ============================
 ( Ranges are relative to norm of vector :  1.00E+00 )

  10- 1 to 10- 0         1    0.99561437E+00      0.9956143677
  10- 2 to 10- 1         3    0.41184470E-02      0.9997328147
  10- 3 to 10- 2         7    0.26608464E-03      0.9999988993
  10- 4 to 10- 3         7    0.10910924E-05      0.9999999904
  10- 5 to 10- 4         3    0.95043951E-08      0.9999999999
  10- 6 to 10- 5         2    0.87310583E-10      1.0000000000
  10- 7 to 10- 6         1    0.25290898E-13      1.0000000000
  Number of coefficients less than 10^-11 times norm is           81


 @ Excited state no:    2 in symmetry 1  ( A  ) - singlet excitation
 -------------------------------------------------------------------

@ Excitation energy :  0.19575347     au
@                       5.3267230     eV;   42962.921     cm-1;   513.95067     kJ / mol

@ Total energy :       -38.669070     au

@ Operator label: XDIPLEN ; Transition moment : -0.18252294     au
@ Oscillator strength (LENGTH)   :  4.34763565E-03  (X-polarization)

@ Operator label: YDIPLEN ; Transition moment : -1.53418952E-15 au
@ Oscillator strength (LENGTH)   :  3.07168194E-31  (Y-polarization)

@ Operator label: ZDIPLEN ; Transition moment :  3.86872284E-15 au
@ Oscillator strength (LENGTH)   :  1.95323031E-30  (Z-polarization)
@ Total oscillator strength (LENGTH)   :  4.34763565E-03

 Eigenvector for state no.  2

      Index(conf)                         Z operator          Y operator
      ----------                      --------------      --------------
           1                           -0.1270059833        0.0000000000
           2                           -0.9760123574        0.0000000000
          31                           -0.1544531699        0.0000000000

      102 elements with absolute value ≤ 1.00D-01 are not printed.

 Printout of coefficients in interval  3.1623E-01 to  1.0000E+00
 ===============================================================

  Coefficient of CSF no.         2 is     -0.97601236   -9.76012357E-01
  Orbital          1   2   3   5
  Spin coupling    2   2   2   2

 Printout of coefficients in interval  1.0000E-01 to  3.1623E-01
 ===============================================================

  Coefficient of CSF no.         1 is     -0.12700598   -1.27005983E-01
  Orbital          1   2   3   4
  Spin coupling    2   2   2   2

  Coefficient of CSF no.        31 is     -0.15445317   -1.54453170E-01
  Orbital          1   3   5   2   4
  Spin coupling    2   2   2   1  -1

 Norm of printed CI vector ..      0.99258642

 Magnitude of CI coefficients
 ============================
 ( Ranges are relative to norm of vector :  1.00E+00 )

  10- 1 to 10- 0         3    0.99258642E+00      0.9925864234
  10- 2 to 10- 1         6    0.72113187E-02      0.9997977421
  10- 3 to 10- 2        10    0.19854537E-03      0.9999962874
  10- 4 to 10- 3         8    0.36983919E-05      0.9999999858
  10- 5 to 10- 4        12    0.14133834E-07      1.0000000000
  10- 6 to 10- 5         2    0.42686280E-10      1.0000000000
  Number of coefficients less than 10^-11 times norm is           64


 @ Excited state no:    3 in symmetry 1  ( A  ) - singlet excitation
 -------------------------------------------------------------------

@ Excitation energy :  0.29079686     au
@                       7.9129851     eV;   63822.533     cm-1;   763.48704     kJ / mol

@ Total energy :       -38.574026     au

@ Operator label: XDIPLEN ; Transition moment : -7.35566882E-15 au
@ Oscillator strength (LENGTH)   :  1.04892102E-29  (X-polarization)

@ Operator label: YDIPLEN ; Transition moment : -3.32849977E-15 au
@ Oscillator strength (LENGTH)   :  2.14780831E-30  (Y-polarization)

@ Operator label: ZDIPLEN ; Transition moment : -1.77285140E-13 au
@ Oscillator strength (LENGTH)   :  6.09316760E-27  (Z-polarization)
@ Total oscillator strength (LENGTH)   :  6.10580461E-27

 Eigenvector for state no.  3

      Index(conf)                         Z operator          Y operator
      ----------                      --------------      --------------
          19                           -0.9996472343        0.0000000000

      104 elements with absolute value ≤ 1.00D-01 are not printed.

 Printout of coefficients in interval  3.1623E-01 to  1.0000E+00
 ===============================================================

  Coefficient of CSF no.        19 is     -0.99964723   -9.99647234E-01
  Orbital          1   2   4   3   5
  Spin coupling    2   2   2   1  -1

 Printout of coefficients in interval  1.0000E-01 to  3.1623E-01
 ===============================================================
   ( no coefficients )

 Printout of coefficients in interval  1.0000E-01 to  1.0000E-01
 ===============================================================
   ( no coefficients )

 Norm of printed CI vector ..      0.99929459

 Magnitude of CI coefficients
 ============================
 ( Ranges are relative to norm of vector :  1.00E+00 )

  10- 1 to 10- 0         1    0.99929459E+00      0.9992945931
  10- 2 to 10- 1         2    0.56956184E-03      0.9998641549
  10- 3 to 10- 2         5    0.13547883E-03      0.9999996338
  10- 4 to 10- 3         3    0.34421207E-06      0.9999999780
  10- 5 to 10- 4         5    0.22009296E-07      1.0000000000
  Number of coefficients less than 10^-11 times norm is           89


 @ Excited state no:    4 in symmetry 1  ( A  ) - singlet excitation
 -------------------------------------------------------------------

@ Excitation energy :  0.33332322     au
@                       9.0701863     eV;   73155.991     cm-1;   875.13999     kJ / mol

@ Total energy :       -38.531500     au

@ Operator label: XDIPLEN ; Transition moment : -0.66550278     au
@ Oscillator strength (LENGTH)   :  9.84178929E-02  (X-polarization)

@ Operator label: YDIPLEN ; Transition moment :  3.20212912E-14 au
@ Oscillator strength (LENGTH)   :  2.27851554E-28  (Y-polarization)

@ Operator label: ZDIPLEN ; Transition moment :  5.58829437E-15 au
@ Oscillator strength (LENGTH)   :  6.93957484E-30  (Z-polarization)
@ Total oscillator strength (LENGTH)   :  9.84178929E-02

 Eigenvector for state no.  4

      Index(conf)                         Z operator          Y operator
      ----------                      --------------      --------------
          17                           -0.9949561844        0.0000000000

      104 elements with absolute value ≤ 1.00D-01 are not printed.

 Printout of coefficients in interval  3.1623E-01 to  1.0000E+00
 ===============================================================

  Coefficient of CSF no.        17 is     -0.99495618   -9.94956184E-01
  Orbital          1   2   3   4   6
  Spin coupling    2   2   2   1  -1

 Printout of coefficients in interval  1.0000E-01 to  3.1623E-01
 ===============================================================
   ( no coefficients )

 Printout of coefficients in interval  1.0000E-01 to  1.0000E-01
 ===============================================================
   ( no coefficients )

 Norm of printed CI vector ..      0.98993781

 Magnitude of CI coefficients
 ============================
 ( Ranges are relative to norm of vector :  1.00E+00 )

  10- 1 to 10- 0         1    0.98993781E+00      0.9899378089
  10- 2 to 10- 1         7    0.98804411E-02      0.9998182500
  10- 3 to 10- 2         7    0.17838101E-03      0.9999966310
  10- 4 to 10- 3        13    0.33561152E-05      0.9999999871
  10- 5 to 10- 4         8    0.12703971E-07      0.9999999998
  10- 6 to 10- 5         5    0.16041027E-09      1.0000000000
  Number of coefficients less than 10^-11 times norm is           64


 @ Excited state no:    5 in symmetry 1  ( A  ) - singlet excitation
 -------------------------------------------------------------------

@ Excitation energy :  0.36213002     au
@                       9.8540592     eV;   79478.352     cm-1;   950.77223     kJ / mol

@ Total energy :       -38.502693     au

@ Operator label: XDIPLEN ; Transition moment :  2.86504750E-14 au
@ Oscillator strength (LENGTH)   :  1.98169551E-28  (X-polarization)

@ Operator label: YDIPLEN ; Transition moment : -6.04835189E-02 au
@ Oscillator strength (LENGTH)   :  8.83176232E-04  (Y-polarization)

@ Operator label: ZDIPLEN ; Transition moment : -1.15109016E-14 au
@ Oscillator strength (LENGTH)   :  3.19883584E-29  (Z-polarization)
@ Total oscillator strength (LENGTH)   :  8.83176232E-04

 Eigenvector for state no.  5

      Index(conf)                         Z operator          Y operator
      ----------                      --------------      --------------
          28                            0.9980473571        0.0000000000

      104 elements with absolute value ≤ 1.00D-01 are not printed.

 Printout of coefficients in interval  3.1623E-01 to  1.0000E+00
 ===============================================================

  Coefficient of CSF no.        28 is      0.99804736    9.98047357E-01
  Orbital          1   2   5   3   4
  Spin coupling    2   2   2   1  -1

 Printout of coefficients in interval  1.0000E-01 to  3.1623E-01
 ===============================================================
   ( no coefficients )

 Norm of printed CI vector ..      0.99609853

 Magnitude of CI coefficients
 ============================
 ( Ranges are relative to norm of vector :  1.00E+00 )

  10- 1 to 10- 0         1    0.99609853E+00      0.9960985270
  10- 2 to 10- 1         6    0.38048942E-02      0.9999034212
  10- 3 to 10- 2         4    0.95259314E-04      0.9999986805
  10- 4 to 10- 3         7    0.13107434E-05      0.9999999913
  10- 5 to 10- 4         5    0.87317931E-08      1.0000000000
  10- 6 to 10- 5         1    0.25076500E-11      1.0000000000
  Number of coefficients less than 10^-11 times norm is           81


 @ Excited state no:    6 in symmetry 1  ( A  ) - singlet excitation
 -------------------------------------------------------------------

@ Excitation energy :  0.47015719     au
@                       12.793628     eV;   103187.57     cm-1;   1234.3975     kJ / mol

@ Total energy :       -38.394666     au

@ Operator label: XDIPLEN ; Transition moment :  2.18169197E-15 au
@ Oscillator strength (LENGTH)   :  1.49189648E-30  (X-polarization)

@ Operator label: YDIPLEN ; Transition moment :  2.06123658E-14 au
@ Oscillator strength (LENGTH)   :  1.33170338E-28  (Y-polarization)

@ Operator label: ZDIPLEN ; Transition moment :  0.10872334     au
@ Oscillator strength (LENGTH)   :  3.70507801E-03  (Z-polarization)
@ Total oscillator strength (LENGTH)   :  3.70507801E-03

 Eigenvector for state no.  6

      Index(conf)                         Z operator          Y operator
      ----------                      --------------      --------------
          18                           -0.9737841266        0.0000000000
          79                           -0.1914548349        0.0000000000

      103 elements with absolute value ≤ 1.00D-01 are not printed.

 Printout of coefficients in interval  3.1623E-01 to  1.0000E+00
 ===============================================================

  Coefficient of CSF no.        18 is     -0.97378413   -9.73784127E-01
  Orbital          1   2   3   5   6
  Spin coupling    2   2   2   1  -1

 Printout of coefficients in interval  1.0000E-01 to  3.1623E-01
 ===============================================================

  Coefficient of CSF no.        79 is     -0.19145483   -1.91454835E-01
  Orbital          1   3   2   4   5   6
  Spin coupling    2   2   1  -1   1  -1

 Norm of printed CI vector ..      0.98491048

 Magnitude of CI coefficients
 ============================
 ( Ranges are relative to norm of vector :  1.00E+00 )

  10- 1 to 10- 0         2    0.98491048E+00      0.9849104791
  10- 2 to 10- 1         6    0.14961930E-01      0.9998724093
  10- 3 to 10- 2         5    0.12618033E-03      0.9999985896
  10- 4 to 10- 3         7    0.13929511E-05      0.9999999826
  10- 5 to 10- 4         4    0.17423254E-07      1.0000000000
  Number of coefficients less than 10^-11 times norm is           81


 @ Excited state no:    7 in symmetry 1  ( A  ) - singlet excitation
 -------------------------------------------------------------------

@ Excitation energy :  0.54380689     au
@                       14.797738     eV;   119351.82     cm-1;   1427.7648     kJ / mol

@ Total energy :       -38.321016     au

@ Operator label: XDIPLEN ; Transition moment : -2.50899180E-13 au
@ Oscillator strength (LENGTH)   :  2.28219070E-26  (X-polarization)

@ Operator label: YDIPLEN ; Transition moment :  0.94964216     au
@ Oscillator strength (LENGTH)   :  0.32694404      (Y-polarization)

@ Operator label: ZDIPLEN ; Transition moment :  1.52895389E-14 au
@ Oscillator strength (LENGTH)   :  8.47504912E-29  (Z-polarization)
@ Total oscillator strength (LENGTH)   :  0.32694404    

 Eigenvector for state no.  7

      Index(conf)                         Z operator          Y operator
      ----------                      --------------      --------------
          20                            0.9901234981        0.0000000000
          29                           -0.1146903452        0.0000000000

      103 elements with absolute value ≤ 1.00D-01 are not printed.

 Printout of coefficients in interval  3.1623E-01 to  1.0000E+00
 ===============================================================

  Coefficient of CSF no.        20 is      0.99012350    9.90123498E-01
  Orbital          1   2   4   3   6
  Spin coupling    2   2   2   1  -1

 Printout of coefficients in interval  1.0000E-01 to  3.1623E-01
 ===============================================================

  Coefficient of CSF no.        29 is     -0.11469035   -1.14690345E-01
  Orbital          1   2   5   3   6
  Spin coupling    2   2   2   1  -1

 Norm of printed CI vector ..      0.99349842

 Magnitude of CI coefficients
 ============================
 ( Ranges are relative to norm of vector :  1.00E+00 )

  10- 1 to 10- 0         2    0.99349842E+00      0.9934984167
  10- 2 to 10- 1         7    0.64536455E-02      0.9999520622
  10- 3 to 10- 2         3    0.47423348E-04      0.9999994856
  10- 4 to 10- 3         5    0.49976700E-06      0.9999999853
  10- 5 to 10- 4         7    0.14657590E-07      1.0000000000
  Number of coefficients less than 10^-11 times norm is           81


 @ Excited state no:    8 in symmetry 1  ( A  ) - singlet excitation
 -------------------------------------------------------------------

@ Excitation energy :  0.59826200     au
@                       16.279537     eV;   131303.33     cm-1;   1570.7366     kJ / mol

@ Total energy :       -38.266561     au

@ Operator label: XDIPLEN ; Transition moment : -3.15199603E-15 au
@ Oscillator strength (LENGTH)   :  3.96252018E-30  (X-polarization)

@ Operator label: YDIPLEN ; Transition moment : -8.18521838E-15 au
@ Oscillator strength (LENGTH)   :  2.67214920E-29  (Y-polarization)

@ Operator label: ZDIPLEN ; Transition moment :  3.19959939E-15 au
@ Oscillator strength (LENGTH)   :  4.08311276E-30  (Z-polarization)
@ Total oscillator strength (LENGTH)   :  3.47671250E-29

 Eigenvector for state no.  8

      Index(conf)                         Z operator          Y operator
      ----------                      --------------      --------------
          76                           -0.6134793702        0.0000000000
          77                           -0.7838290105        0.0000000000

      103 elements with absolute value ≤ 1.00D-01 are not printed.

 Printout of coefficients in interval  3.1623E-01 to  1.0000E+00
 ===============================================================

  Coefficient of CSF no.        76 is     -0.61347937   -6.13479370E-01
  Orbital          1   2   3   4   5   6
  Spin coupling    2   2   1   1  -1  -1

  Coefficient of CSF no.        77 is     -0.78382901   -7.83829010E-01
  Orbital          1   2   3   4   5   6
  Spin coupling    2   2   1  -1   1  -1

 Printout of coefficients in interval  1.0000E-01 to  3.1623E-01
 ===============================================================
   ( no coefficients )

 Norm of printed CI vector ..      0.99074486

 Magnitude of CI coefficients
 ============================
 ( Ranges are relative to norm of vector :  1.00E+00 )

  10- 1 to 10- 0         2    0.99074486E+00      0.9907448553
  10- 2 to 10- 1         4    0.92358555E-02      0.9999807108
  10- 3 to 10- 2         2    0.18110644E-04      0.9999988214
  10- 4 to 10- 3         5    0.11629419E-05      0.9999999844
  10- 5 to 10- 4         3    0.15621506E-07      1.0000000000
[...]
      ----------                      --------------      --------------
          60                           -0.9993246260        0.0000000000

      104 elements with absolute value ≤ 1.00D-01 are not printed.

 Printout of coefficients in interval  3.1623E-01 to  1.0000E+00
 ===============================================================

  Coefficient of CSF no.        60 is     -0.99932463   -9.99324626E-01
  Orbital          2   4   6   3   5
  Spin coupling    2   2   2   1  -1

 Printout of coefficients in interval  1.0000E-01 to  3.1623E-01
 ===============================================================
   ( no coefficients )

 Norm of printed CI vector ..      0.99864971

 Magnitude of CI coefficients
 ============================
 ( Ranges are relative to norm of vector :  1.00E+00 )

  10- 1 to 10- 0         1    0.99864971E+00      0.9986497082
  10- 2 to 10- 1         3    0.12615103E-02      0.9999112184
  10- 3 to 10- 2         3    0.85954750E-04      0.9999971732
  10- 4 to 10- 3         9    0.28268300E-05      1.0000000000
  Number of coefficients less than 10^-11 times norm is           89


 @ Excited state no:   98 in symmetry 1  ( A  ) - singlet excitation
 -------------------------------------------------------------------

@ Excitation energy :   25.999808     au
@                       707.49076     eV;   5706298.2     cm-1;   68262.485     kJ / mol

@ Total energy :       -12.865015     au

@ Operator label: XDIPLEN ; Transition moment : -6.91813569E-05 au
@ Oscillator strength (LENGTH)   :  8.29577621E-08  (X-polarization)

@ Operator label: YDIPLEN ; Transition moment :  4.27926251E-17 au
@ Oscillator strength (LENGTH)   :  3.17407171E-32  (Y-polarization)

@ Operator label: ZDIPLEN ; Transition moment :  3.54999406E-17 au
@ Oscillator strength (LENGTH)   :  2.18440987E-32  (Z-polarization)
@ Total oscillator strength (LENGTH)   :  8.29577621E-08

 Eigenvector for state no. 98

      Index(conf)                         Z operator          Y operator
      ----------                      --------------      --------------
          12                            0.9316825492        0.0000000000
          14                           -0.1218480857        0.0000000000
          36                           -0.1304639779        0.0000000000
          72                            0.3112763551        0.0000000000

      101 elements with absolute value ≤ 1.00D-01 are not printed.

 Printout of coefficients in interval  3.1623E-01 to  1.0000E+00
 ===============================================================

  Coefficient of CSF no.        12 is      0.93168255    9.31682549E-01
  Orbital          2   3   5   6
  Spin coupling    2   2   2   2

 Printout of coefficients in interval  1.0000E-01 to  3.1623E-01
 ===============================================================

  Coefficient of CSF no.        14 is     -0.12184809   -1.21848086E-01
  Orbital          2   4   5   6
  Spin coupling    2   2   2   2

  Coefficient of CSF no.        36 is     -0.13046398   -1.30463978E-01
  Orbital          2   3   5   4   6
  Spin coupling    2   2   2   1  -1

  Coefficient of CSF no.        72 is      0.31127636    3.11276355E-01
  Orbital          3   5   6   2   4
  Spin coupling    2   2   2   1  -1

 Norm of printed CI vector ..      0.99679315

 Magnitude of CI coefficients
 ============================
 ( Ranges are relative to norm of vector :  1.00E+00 )

  10- 1 to 10- 0         4    0.99679315E+00      0.9967931473
  10- 2 to 10- 1         4    0.29578850E-02      0.9997510323
  10- 3 to 10- 2        11    0.24673719E-03      0.9999977695
  10- 4 to 10- 3        12    0.22147329E-05      0.9999999843
  10- 5 to 10- 4         7    0.15697723E-07      1.0000000000
  10- 6 to 10- 5         2    0.35048237E-10      1.0000000000
  10- 7 to 10- 6         1    0.11728394E-12      1.0000000000
  Number of coefficients less than 10^-11 times norm is           64


 @ Excited state no:   99 in symmetry 1  ( A  ) - singlet excitation
 -------------------------------------------------------------------

@ Excitation energy :   26.057297     au
@                       709.05512     eV;   5718915.6     cm-1;   68413.423     kJ / mol

@ Total energy :       -12.807526     au

@ Operator label: XDIPLEN ; Transition moment :  9.65595111E-17 au
@ Oscillator strength (LENGTH)   :  1.61967628E-31  (X-polarization)

@ Operator label: YDIPLEN ; Transition moment :  1.97712477E-07 au
@ Oscillator strength (LENGTH)   :  6.79057047E-13  (Y-polarization)

@ Operator label: ZDIPLEN ; Transition moment : -1.23985385E-16 au
@ Oscillator strength (LENGTH)   :  2.67041709E-31  (Z-polarization)
@ Total oscillator strength (LENGTH)   :  6.79057047E-13

 Eigenvector for state no. 99

      Index(conf)                         Z operator          Y operator
      ----------                      --------------      --------------
          69                            0.9957918470        0.0000000000

      104 elements with absolute value ≤ 1.00D-01 are not printed.

 Printout of coefficients in interval  3.1623E-01 to  1.0000E+00
 ===============================================================

  Coefficient of CSF no.        69 is      0.99579185    9.95791847E-01
  Orbital          2   5   6   3   4
  Spin coupling    2   2   2   1  -1

 Printout of coefficients in interval  1.0000E-01 to  3.1623E-01
 ===============================================================
   ( no coefficients )

 Norm of printed CI vector ..      0.99160140

 Magnitude of CI coefficients
 ============================
 ( Ranges are relative to norm of vector :  1.00E+00 )

  10- 1 to 10- 0         1    0.99160140E+00      0.9916014026
  10- 2 to 10- 1         4    0.82739688E-02      0.9998753714
  10- 3 to 10- 2         5    0.12203118E-03      0.9999974026
  10- 4 to 10- 3        10    0.25941512E-05      0.9999999968
  10- 5 to 10- 4         4    0.32447854E-08      1.0000000000
  Number of coefficients less than 10^-11 times norm is           81


 @ Excited state no:  100 in symmetry 1  ( A  ) - singlet excitation
 -------------------------------------------------------------------

@ Excitation energy :   26.194580     au
@                       712.79078     eV;   5749045.7     cm-1;   68773.859     kJ / mol

@ Total energy :       -12.670243     au

@ Operator label: XDIPLEN ; Transition moment : -1.33759933E-05 au
@ Oscillator strength (LENGTH)   :  3.12444058E-09  (X-polarization)

@ Operator label: YDIPLEN ; Transition moment : -4.47820581E-17 au
@ Oscillator strength (LENGTH)   :  3.50209788E-32  (Y-polarization)

@ Operator label: ZDIPLEN ; Transition moment :  1.04435825E-16 au
@ Oscillator strength (LENGTH)   :  1.90466757E-31  (Z-polarization)
@ Total oscillator strength (LENGTH)   :  3.12444058E-09

 Eigenvector for state no.100

      Index(conf)                         Z operator          Y operator
      ----------                      --------------      --------------
          12                            0.1208697576        0.0000000000
          14                            0.9776529151        0.0000000000
          15                           -0.1428309436        0.0000000000

      102 elements with absolute value ≤ 1.00D-01 are not printed.

 Printout of coefficients in interval  3.1623E-01 to  1.0000E+00
 ===============================================================

  Coefficient of CSF no.        14 is      0.97765292    9.77652915E-01
  Orbital          2   4   5   6
  Spin coupling    2   2   2   2

 Printout of coefficients in interval  1.0000E-01 to  3.1623E-01
 ===============================================================

  Coefficient of CSF no.        12 is      0.12086976    1.20869758E-01
  Orbital          2   3   5   6
  Spin coupling    2   2   2   2

  Coefficient of CSF no.        15 is     -0.14283094   -1.42830944E-01
  Orbital          3   4   5   6
  Spin coupling    2   2   2   2

 Norm of printed CI vector ..      0.99081540

 Magnitude of CI coefficients
 ============================
 ( Ranges are relative to norm of vector :  1.00E+00 )

  10- 1 to 10- 0         3    0.99081540E+00      0.9908153992
  10- 2 to 10- 1         5    0.90063572E-02      0.9998217563
  10- 3 to 10- 2         8    0.17477027E-03      0.9999965266
  10- 4 to 10- 3        12    0.34512494E-05      0.9999999778
  10- 5 to 10- 4        10    0.22111336E-07      0.9999999999
  10- 6 to 10- 5         2    0.52854547E-10      1.0000000000
  10- 7 to 10- 6         1    0.49150791E-12      1.0000000000
  Number of coefficients less than 10^-11 times norm is           64


 @ Excited state no:  101 in symmetry 1  ( A  ) - singlet excitation
 -------------------------------------------------------------------

@ Excitation energy :   26.345815     au
@                       716.90609     eV;   5782237.9     cm-1;   69170.926     kJ / mol

@ Total energy :       -12.519008     au

@ Operator label: XDIPLEN ; Transition moment :  1.26081454E-16 au
@ Oscillator strength (LENGTH)   :  2.79204744E-31  (X-polarization)

@ Operator label: YDIPLEN ; Transition moment :  6.26992726E-17 au
@ Oscillator strength (LENGTH)   :  6.90470898E-32  (Y-polarization)

@ Operator label: ZDIPLEN ; Transition moment : -4.15413595E-05 au
@ Oscillator strength (LENGTH)   :  3.03097103E-08  (Z-polarization)
@ Total oscillator strength (LENGTH)   :  3.03097103E-08

 Eigenvector for state no.101

      Index(conf)                         Z operator          Y operator
      ----------                      --------------      --------------
          27                            0.1501761989        0.0000000000
          54                           -0.2059974406        0.0000000000
          63                           -0.9665566644        0.0000000000

      102 elements with absolute value ≤ 1.00D-01 are not printed.

 Printout of coefficients in interval  3.1623E-01 to  1.0000E+00
 ===============================================================

  Coefficient of CSF no.        63 is     -0.96655666   -9.66556664E-01
  Orbital          3   4   6   2   5
  Spin coupling    2   2   2   1  -1

 Printout of coefficients in interval  1.0000E-01 to  3.1623E-01
 ===============================================================

  Coefficient of CSF no.        27 is      0.15017620    1.50176199E-01
  Orbital          2   3   4   5   6
  Spin coupling    2   2   2   1  -1

  Coefficient of CSF no.        54 is     -0.20599744   -2.05997441E-01
  Orbital          2   3   6   4   5
  Spin coupling    2   2   2   1  -1

 Norm of printed CI vector ..      0.99921962

 Magnitude of CI coefficients
 ============================
 ( Ranges are relative to norm of vector :  1.00E+00 )

  10- 1 to 10- 0         3    0.99921962E+00      0.9992196217
  10- 2 to 10- 1         3    0.76480073E-03      0.9999844224
  10- 3 to 10- 2         5    0.13058000E-04      0.9999974804
  10- 4 to 10- 3         8    0.24938099E-05      0.9999999742
  10- 5 to 10- 4         4    0.25716639E-07      1.0000000000
  10- 6 to 10- 5         1    0.37045129E-10      1.0000000000
  Number of coefficients less than 10^-11 times norm is           81


 @ Excited state no:  102 in symmetry 1  ( A  ) - singlet excitation
 -------------------------------------------------------------------

@ Excitation energy :   26.659341     au
@                       725.43758     eV;   5851049.0     cm-1;   69994.089     kJ / mol

@ Total energy :       -12.205482     au

@ Operator label: XDIPLEN ; Transition moment :  1.89719957E-05 au
@ Oscillator strength (LENGTH)   :  6.39711548E-09  (X-polarization)

@ Operator label: YDIPLEN ; Transition moment : -2.20076428E-17 au
@ Oscillator strength (LENGTH)   :  8.60805850E-33  (Y-polarization)

@ Operator label: ZDIPLEN ; Transition moment : -2.49561957E-17 au
@ Oscillator strength (LENGTH)   :  1.10691665E-32  (Z-polarization)
@ Total oscillator strength (LENGTH)   :  6.39711548E-09

 Eigenvector for state no.102

      Index(conf)                         Z operator          Y operator
      ----------                      --------------      --------------
          12                           -0.3171464543        0.0000000000
          15                            0.1133489976        0.0000000000
          36                           -0.1279032545        0.0000000000
          72                            0.9269368454        0.0000000000

      101 elements with absolute value ≤ 1.00D-01 are not printed.

 Printout of coefficients in interval  3.1623E-01 to  1.0000E+00
 ===============================================================

  Coefficient of CSF no.        12 is     -0.31714645   -3.17146454E-01
  Orbital          2   3   5   6
  Spin coupling    2   2   2   2

  Coefficient of CSF no.        72 is      0.92693685    9.26936845E-01
  Orbital          3   5   6   2   4
  Spin coupling    2   2   2   1  -1

 Printout of coefficients in interval  1.0000E-01 to  3.1623E-01
 ===============================================================

  Coefficient of CSF no.        15 is      0.11334900    1.13348998E-01
  Orbital          3   4   5   6
  Spin coupling    2   2   2   2

  Coefficient of CSF no.        36 is     -0.12790325   -1.27903255E-01
  Orbital          2   3   5   4   6
  Spin coupling    2   2   2   1  -1

 Norm of printed CI vector ..      0.98900103

 Magnitude of CI coefficients
 ============================
 ( Ranges are relative to norm of vector :  1.00E+00 )

  10- 1 to 10- 0         4    0.98900103E+00      0.9890010267
  10- 2 to 10- 1         6    0.10969265E-01      0.9999702916
  10- 3 to 10- 2         7    0.27675680E-04      0.9999979673
  10- 4 to 10- 3        13    0.20101901E-05      0.9999999775
  10- 5 to 10- 4         8    0.22472956E-07      1.0000000000
  10- 6 to 10- 5         2    0.22439824E-10      1.0000000000
  10- 7 to 10- 6         1    0.83510355E-12      1.0000000000
  Number of coefficients less than 10^-11 times norm is           64


 @ Excited state no:  103 in symmetry 1  ( A  ) - singlet excitation
 -------------------------------------------------------------------

@ Excitation energy :   26.843917     au
@                       730.46015     eV;   5891558.8     cm-1;   70478.694     kJ / mol

@ Total energy :       -12.020906     au

@ Operator label: XDIPLEN ; Transition moment :  2.50890442E-17 au
@ Oscillator strength (LENGTH)   :  1.12647839E-32  (X-polarization)

@ Operator label: YDIPLEN ; Transition moment : -3.14725856E-08 au
@ Oscillator strength (LENGTH)   :  1.77263565E-14  (Y-polarization)

@ Operator label: ZDIPLEN ; Transition moment : -2.43302745E-16 au
@ Oscillator strength (LENGTH)   :  1.05937239E-30  (Z-polarization)
@ Total oscillator strength (LENGTH)   :  1.77263565E-14

 Eigenvector for state no.103

      Index(conf)                         Z operator          Y operator
      ----------                      --------------      --------------
          42                           -0.1448824415        0.0000000000
          75                            0.9863987560        0.0000000000

      103 elements with absolute value ≤ 1.00D-01 are not printed.

 Printout of coefficients in interval  3.1623E-01 to  1.0000E+00
 ===============================================================

  Coefficient of CSF no.        75 is      0.98639876    9.86398756E-01
  Orbital          4   5   6   2   3
  Spin coupling    2   2   2   1  -1

 Printout of coefficients in interval  1.0000E-01 to  3.1623E-01
 ===============================================================

  Coefficient of CSF no.        42 is     -0.14488244   -1.44882442E-01
  Orbital          2   4   5   3   6
  Spin coupling    2   2   2   1  -1

 Printout of coefficients in interval  1.0000E-01 to  1.0000E-01
 ===============================================================
   ( no coefficients )

 Norm of printed CI vector ..      0.99397343

 Magnitude of CI coefficients
 ============================
 ( Ranges are relative to norm of vector :  1.00E+00 )

  10- 1 to 10- 0         2    0.99397343E+00      0.9939734277
  10- 2 to 10- 1         4    0.60011189E-02      0.9999745466
  10- 3 to 10- 2         4    0.22674993E-04      0.9999972216
  10- 4 to 10- 3        10    0.27729626E-05      0.9999999946
  10- 5 to 10- 4         3    0.54423209E-08      1.0000000000
  10- 7 to 10- 6         1    0.98012184E-12      1.0000000000
  Number of coefficients less than 10^-11 times norm is           81


 @ Excited state no:  104 in symmetry 1  ( A  ) - singlet excitation
 -------------------------------------------------------------------

@ Excitation energy :   27.244623     au
@                       741.36390     eV;   5979503.5     cm-1;   71530.746     kJ / mol

@ Total energy :       -11.620200     au

@ Operator label: XDIPLEN ; Transition moment :  6.33443982E-06 au
@ Oscillator strength (LENGTH)   :  7.28795981E-10  (X-polarization)

@ Operator label: YDIPLEN ; Transition moment : -5.42978385E-17 au
@ Oscillator strength (LENGTH)   :  5.35494016E-32  (Y-polarization)

@ Operator label: ZDIPLEN ; Transition moment :  9.20001949E-17 au
@ Oscillator strength (LENGTH)   :  1.53732976E-31  (Z-polarization)
@ Total oscillator strength (LENGTH)   :  7.28795981E-10

 Eigenvector for state no.104

      Index(conf)                         Z operator          Y operator
      ----------                      --------------      --------------
          14                            0.1486068327        0.0000000000
          15                            0.9516548908        0.0000000000
          45                            0.2222964680        0.0000000000
          72                           -0.1139059698        0.0000000000

      101 elements with absolute value ≤ 1.00D-01 are not printed.

 Printout of coefficients in interval  3.1623E-01 to  1.0000E+00
 ===============================================================

  Coefficient of CSF no.        15 is      0.95165489    9.51654891E-01
  Orbital          3   4   5   6
  Spin coupling    2   2   2   2

 Printout of coefficients in interval  1.0000E-01 to  3.1623E-01
 ===============================================================

  Coefficient of CSF no.        14 is      0.14860683    1.48606833E-01
  Orbital          2   4   5   6
  Spin coupling    2   2   2   2

  Coefficient of CSF no.        45 is      0.22229647    2.22296468E-01
  Orbital          3   4   5   2   6
  Spin coupling    2   2   2   1  -1

  Coefficient of CSF no.        72 is     -0.11390597   -1.13905970E-01
  Orbital          3   5   6   2   4
  Spin coupling    2   2   2   1  -1

 Norm of printed CI vector ..      0.99012131

 Magnitude of CI coefficients
 ============================
 ( Ranges are relative to norm of vector :  1.00E+00 )

  10- 1 to 10- 0         4    0.99012131E+00      0.9901213116
  10- 2 to 10- 1         5    0.97572919E-02      0.9998786036
  10- 3 to 10- 2         9    0.11754577E-03      0.9999961493
  10- 4 to 10- 3        13    0.38215331E-05      0.9999999709
  10- 5 to 10- 4        10    0.29126317E-07      1.0000000000
  Number of coefficients less than 10^-11 times norm is           64


 Time used in polarization propagator calculation is      0.12 CPU seconds for symmetry 1

  Total CPU  time used in RESPONSE:   0.15 seconds
  Total wall time used in RESPONSE:   0.32 seconds


                   .-------------------------------------------.
                   | End of Dynamic Property Section (RESPONS) |
                   `-------------------------------------------'

  Total CPU  time used in DALTON:   0.36 seconds
  Total wall time used in DALTON:   1.27 seconds

 NOTE:    1 warnings have been issued.
 Check output, result, and error files for "WARNING".

 
     Date and time (Linux)  : Tue Jul  7 10:35:02 2026
     Host name              : n-62-31-21                              
